r 0.01032 0 2 tcp 40 ------- 1 0.0 3.0 0 0
r 0.02064 2 3 tcp 40 ------- 1 0.0 3.0 0 0
r 0.0596 0 2 tcp 1040 ------- 1 0.0 3.0 1 3
r 0.06792 0 2 tcp 1040 ------- 1 0.0 3.0 2 4
r 0.07792 2 3 tcp 1040 ------- 1 0.0 3.0 1 3
r 0.08624 2 3 tcp 1040 ------- 1 0.0 3.0 2 4
r 0.11688 0 2 tcp 1040 ------- 1 0.0 3.0 3 8
r 0.1252 0 2 tcp 1040 ------- 1 0.0 3.0 4 9
r 0.13352 0 2 tcp 1040 ------- 1 0.0 3.0 5 10
r 0.1352 2 3 tcp 1040 ------- 1 0.0 3.0 3 8
r 0.14184 0 2 tcp 1040 ------- 1 0.0 3.0 6 11
r 0.14352 2 3 tcp 1040 ------- 1 0.0 3.0 4 9
r 0.15184 2 3 tcp 1040 ------- 1 0.0 3.0 5 10
r 0.16016 2 3 tcp 1040 ------- 1 0.0 3.0 6 11
r 0.17416 0 2 tcp 1040 ------- 1 0.0 3.0 7 17
r 0.18248 0 2 tcp 1040 ------- 1 0.0 3.0 8 18
r 0.1908 0 2 tcp 1040 ------- 1 0.0 3.0 9 20
r 0.19552 2 3 tcp 1040 ------- 1 0.0 3.0 7 17
r 0.19912 0 2 tcp 1040 ------- 1 0.0 3.0 10 21
r 0.20384 2 3 tcp 1040 ------- 1 0.0 3.0 8 18
r 0.20744 0 2 tcp 1040 ------- 1 0.0 3.0 11 22
r 0.21216 2 3 tcp 1040 ------- 1 0.0 3.0 9 20
r 0.21576 0 2 tcp 1040 ------- 1 0.0 3.0 12 23
r 0.22048 2 3 tcp 1040 ------- 1 0.0 3.0 10 21
r 0.22408 0 2 tcp 1040 ------- 1 0.0 3.0 13 24
r 0.2288 2 3 tcp 1040 ------- 1 0.0 3.0 11 22
r 0.2324 0 2 tcp 1040 ------- 1 0.0 3.0 14 25
r 0.23712 2 3 tcp 1040 ------- 1 0.0 3.0 12 23
r 0.24072 0 2 tcp 1040 ------- 1 0.0 3.0 15 29
r 0.24544 2 3 tcp 1040 ------- 1 0.0 3.0 13 24
r 0.24904 0 2 tcp 1040 ------- 1 0.0 3.0 16 30
r 0.25376 2 3 tcp 1040 ------- 1 0.0 3.0 14 25
r 0.25736 0 2 tcp 1040 ------- 1 0.0 3.0 17 32
r 0.26208 2 3 tcp 1040 ------- 1 0.0 3.0 15 29
r 0.26568 0 2 tcp 1040 ------- 1 0.0 3.0 18 33
r 0.2704 2 3 tcp 1040 ------- 1 0.0 3.0 16 30
r 0.274 0 2 tcp 1040 ------- 1 0.0 3.0 19 35
r 0.27872 2 3 tcp 1040 ------- 1 0.0 3.0 17 32
r 0.28232 0 2 tcp 1040 ------- 1 0.0 3.0 20 36
r 0.28704 2 3 tcp 1040 ------- 1 0.0 3.0 18 33
r 0.29064 0 2 tcp 1040 ------- 1 0.0 3.0 21 39
r 0.29536 2 3 tcp 1040 ------- 1 0.0 3.0 19 35
r 0.29896 0 2 tcp 1040 ------- 1 0.0 3.0 22 40
r 0.30368 2 3 tcp 1040 ------- 1 0.0 3.0 20 36
r 0.30728 0 2 tcp 1040 ------- 1 0.0 3.0 23 43
r 0.312 2 3 tcp 1040 ------- 1 0.0 3.0 21 39
r 0.3156 0 2 tcp 1040 ------- 1 0.0 3.0 24 44
r 0.32032 2 3 tcp 1040 ------- 1 0.0 3.0 22 40
r 0.32392 0 2 tcp 1040 ------- 1 0.0 3.0 25 46
r 0.32864 2 3 tcp 1040 ------- 1 0.0 3.0 23 43
r 0.33224 0 2 tcp 1040 ------- 1 0.0 3.0 26 47
r 0.33696 2 3 tcp 1040 ------- 1 0.0 3.0 24 44
r 0.34056 0 2 tcp 1040 ------- 1 0.0 3.0 27 49
r 0.34528 2 3 tcp 1040 ------- 1 0.0 3.0 25 46
r 0.34888 0 2 tcp 1040 ------- 1 0.0 3.0 28 50
r 0.3572 0 2 tcp 1040 ------- 1 0.0 3.0 29 52
r 0.36192 2 3 tcp 1040 ------- 1 0.0 3.0 26 47
r 0.36552 0 2 tcp 1040 ------- 1 0.0 3.0 30 53
r 0.37384 0 2 tcp 1040 ------- 1 0.0 3.0 31 55
r 0.37856 2 3 tcp 1040 ------- 1 0.0 3.0 27 49
r 0.38216 0 2 tcp 1040 ------- 1 0.0 3.0 32 56
r 0.39048 0 2 tcp 1040 ------- 1 0.0 3.0 33 58
r 0.3952 2 3 tcp 1040 ------- 1 0.0 3.0 28 50
r 0.3988 0 2 tcp 1040 ------- 1 0.0 3.0 34 59
r 0.40712 0 2 tcp 1040 ------- 1 0.0 3.0 35 61
r 0.41184 2 3 tcp 1040 ------- 1 0.0 3.0 29 52
r 0.41544 0 2 tcp 1040 ------- 1 0.0 3.0 36 62
r 0.42016 2 3 tcp 1040 ------- 1 0.0 3.0 30 53
r 0.42376 0 2 tcp 1040 ------- 1 0.0 3.0 37 64
r 0.42848 2 3 tcp 1040 ------- 1 0.0 3.0 31 55
r 0.43208 0 2 tcp 1040 ------- 1 0.0 3.0 38 65
r 0.4368 2 3 tcp 1040 ------- 1 0.0 3.0 32 56
r 0.4404 0 2 tcp 1040 ------- 1 0.0 3.0 39 69
r 0.44512 2 3 tcp 1040 ------- 1 0.0 3.0 33 58
r 0.44872 0 2 tcp 1040 ------- 1 0.0 3.0 40 73
r 0.45344 2 3 tcp 1040 ------- 1 0.0 3.0 34 59
r 0.45704 0 2 tcp 1040 ------- 1 0.0 3.0 41 75
r 0.46176 2 3 tcp 1040 ------- 1 0.0 3.0 35 61
r 0.46536 0 2 tcp 1040 ------- 1 0.0 3.0 42 77
r 0.47008 2 3 tcp 1040 ------- 1 0.0 3.0 36 62
r 0.47368 0 2 tcp 1040 ------- 1 0.0 3.0 43 79
r 0.4784 2 3 tcp 1040 ------- 1 0.0 3.0 37 64
r 0.482 0 2 tcp 1040 ------- 1 0.0 3.0 44 80
r 0.48672 2 3 tcp 1040 ------- 1 0.0 3.0 38 65
r 0.49032 0 2 tcp 1040 ------- 1 0.0 3.0 45 82
r 0.49504 2 3 tcp 1040 ------- 1 0.0 3.0 39 69
r 0.49864 0 2 tcp 1040 ------- 1 0.0 3.0 46 84
r 0.50336 2 3 tcp 1040 ------- 1 0.0 3.0 40 73
r 0.50696 0 2 tcp 1040 ------- 1 0.0 3.0 47 86
r 0.51168 2 3 tcp 1040 ------- 1 0.0 3.0 41 75
r 0.51528 0 2 tcp 1040 ------- 1 0.0 3.0 48 89
r 0.52 2 3 tcp 1040 ------- 1 0.0 3.0 42 77
r 0.5236 0 2 tcp 1040 ------- 1 0.0 3.0 49 93
r 0.52832 2 3 tcp 1040 ------- 1 0.0 3.0 43 79
r 0.53192 0 2 tcp 1040 ------- 1 0.0 3.0 50 95
r 0.53664 2 3 tcp 1040 ------- 1 0.0 3.0 44 80
r 0.54024 0 2 tcp 1040 ------- 1 0.0 3.0 51 98
r 0.54496 2 3 tcp 1040 ------- 1 0.0 3.0 45 82
r 0.54856 0 2 tcp 1040 ------- 1 0.0 3.0 52 100
r 0.55328 2 3 tcp 1040 ------- 1 0.0 3.0 46 84
r 0.55688 0 2 tcp 1040 ------- 1 0.0 3.0 53 103
r 0.5652 0 2 tcp 1040 ------- 1 0.0 3.0 54 105
r 0.56992 2 3 tcp 1040 ------- 1 0.0 3.0 47 86
r 0.57352 0 2 tcp 1040 ------- 1 0.0 3.0 55 107
r 0.58184 0 2 tcp 1040 ------- 1 0.0 3.0 56 111
r 0.58656 2 3 tcp 1040 ------- 1 0.0 3.0 48 89
r 0.59016 0 2 tcp 1040 ------- 1 0.0 3.0 57 113
r 0.59848 0 2 tcp 1040 ------- 1 0.0 3.0 58 117
r 0.6032 2 3 tcp 1040 ------- 1 0.0 3.0 49 93
r 0.6068 0 2 tcp 1040 ------- 1 0.0 3.0 59 119
r 0.61512 0 2 tcp 1040 ------- 1 0.0 3.0 60 123
r 0.61984 2 3 tcp 1040 ------- 1 0.0 3.0 50 95
r 0.62344 0 2 tcp 1040 ------- 1 0.0 3.0 61 125
r 0.62816 2 3 tcp 1040 ------- 1 0.0 3.0 51 98
r 0.63176 0 2 tcp 1040 ------- 1 0.0 3.0 62 129
r 0.63648 2 3 tcp 1040 ------- 1 0.0 3.0 52 100
r 0.64008 0 2 tcp 1040 ------- 1 0.0 3.0 63 131
r 0.6448 2 3 tcp 1040 ------- 1 0.0 3.0 53 103
r 0.6484 0 2 tcp 1040 ------- 1 0.0 3.0 64 133
r 0.65312 2 3 tcp 1040 ------- 1 0.0 3.0 54 105
r 0.65672 0 2 tcp 1040 ------- 1 0.0 3.0 65 134
r 0.66144 2 3 tcp 1040 ------- 1 0.0 3.0 55 107
r 0.66504 0 2 tcp 1040 ------- 1 0.0 3.0 66 136
r 0.66976 2 3 tcp 1040 ------- 1 0.0 3.0 56 111
r 0.67336 0 2 tcp 1040 ------- 1 0.0 3.0 67 138
r 0.67808 2 3 tcp 1040 ------- 1 0.0 3.0 57 113
r 0.68168 0 2 tcp 1040 ------- 1 0.0 3.0 68 140
r 0.6864 2 3 tcp 1040 ------- 1 0.0 3.0 58 117
r 0.69 0 2 tcp 1040 ------- 1 0.0 3.0 69 143
r 0.69472 2 3 tcp 1040 ------- 1 0.0 3.0 59 119
r 0.69832 0 2 tcp 1040 ------- 1 0.0 3.0 70 147
r 0.70304 2 3 tcp 1040 ------- 1 0.0 3.0 60 123
r 0.70664 0 2 tcp 1040 ------- 1 0.0 3.0 71 149
r 0.71136 2 3 tcp 1040 ------- 1 0.0 3.0 61 125
r 0.71496 0 2 tcp 1040 ------- 1 0.0 3.0 72 152
r 0.71968 2 3 tcp 1040 ------- 1 0.0 3.0 62 129
r 0.72328 0 2 tcp 1040 ------- 1 0.0 3.0 73 154
r 0.728 2 3 tcp 1040 ------- 1 0.0 3.0 63 131
r 0.7316 0 2 tcp 1040 ------- 1 0.0 3.0 74 157
r 0.73632 2 3 tcp 1040 ------- 1 0.0 3.0 64 133
r 0.73992 0 2 tcp 1040 ------- 1 0.0 3.0 75 159
r 0.74464 2 3 tcp 1040 ------- 1 0.0 3.0 65 134
r 0.74824 0 2 tcp 1040 ------- 1 0.0 3.0 76 161
r 0.75296 2 3 tcp 1040 ------- 1 0.0 3.0 66 136
r 0.75656 0 2 tcp 1040 ------- 1 0.0 3.0 77 165
r 0.76128 2 3 tcp 1040 ------- 1 0.0 3.0 67 138
r 0.76488 0 2 tcp 1040 ------- 1 0.0 3.0 78 167
r 0.7696 2 3 tcp 1040 ------- 1 0.0 3.0 68 140
r 0.7732 0 2 tcp 1040 ------- 1 0.0 3.0 79 171
r 0.77792 2 3 tcp 1040 ------- 1 0.0 3.0 69 143
r 0.78152 0 2 tcp 1040 ------- 1 0.0 3.0 80 173
r 0.78624 2 3 tcp 1040 ------- 1 0.0 3.0 70 147
r 0.78984 0 2 tcp 1040 ------- 1 0.0 3.0 81 177
r 0.79456 2 3 tcp 1040 ------- 1 0.0 3.0 71 149
r 0.79816 0 2 tcp 1040 ------- 1 0.0 3.0 82 179
r 0.80288 2 3 tcp 1040 ------- 1 0.0 3.0 72 152
r 0.80648 0 2 tcp 1040 ------- 1 0.0 3.0 83 183
r 0.8112 2 3 tcp 1040 ------- 1 0.0 3.0 73 154
r 0.8148 0 2 tcp 1040 ------- 1 0.0 3.0 84 185
r 0.81952 2 3 tcp 1040 ------- 1 0.0 3.0 74 157
r 0.82312 0 2 tcp 1040 ------- 1 0.0 3.0 85 187
r 0.82784 2 3 tcp 1040 ------- 1 0.0 3.0 75 159
r 0.83144 0 2 tcp 1040 ------- 1 0.0 3.0 86 189
r 0.83616 2 3 tcp 1040 ------- 1 0.0 3.0 76 161
r 0.83976 0 2 tcp 1040 ------- 1 0.0 3.0 87 191
r 0.84448 2 3 tcp 1040 ------- 1 0.0 3.0 77 165
r 0.84808 0 2 tcp 1040 ------- 1 0.0 3.0 88 193
r 0.8528 2 3 tcp 1040 ------- 1 0.0 3.0 78 167
r 0.8564 0 2 tcp 1040 ------- 1 0.0 3.0 89 195
r 0.86112 2 3 tcp 1040 ------- 1 0.0 3.0 79 171
r 0.86472 0 2 tcp 1040 ------- 1 0.0 3.0 90 197
r 0.86944 2 3 tcp 1040 ------- 1 0.0 3.0 80 173
r 0.87304 0 2 tcp 1040 ------- 1 0.0 3.0 91 199
r 0.87776 2 3 tcp 1040 ------- 1 0.0 3.0 81 177
r 0.88136 0 2 tcp 1040 ------- 1 0.0 3.0 92 201
r 0.88608 2 3 tcp 1040 ------- 1 0.0 3.0 82 179
r 0.88968 0 2 tcp 1040 ------- 1 0.0 3.0 93 203
r 0.8944 2 3 tcp 1040 ------- 1 0.0 3.0 83 183
r 0.898 0 2 tcp 1040 ------- 1 0.0 3.0 94 205
r 0.90272 2 3 tcp 1040 ------- 1 0.0 3.0 84 185
r 0.90632 0 2 tcp 1040 ------- 1 0.0 3.0 95 207
r 0.91104 2 3 tcp 1040 ------- 1 0.0 3.0 85 187
r 0.91464 0 2 tcp 1040 ------- 1 0.0 3.0 96 209
r 0.91936 2 3 tcp 1040 ------- 1 0.0 3.0 86 189
r 0.92296 0 2 tcp 1040 ------- 1 0.0 3.0 97 211
r 0.92768 2 3 tcp 1040 ------- 1 0.0 3.0 87 191
r 0.93128 0 2 tcp 1040 ------- 1 0.0 3.0 98 213
r 0.936 2 3 tcp 1040 ------- 1 0.0 3.0 88 193
r 0.9396 0 2 tcp 1040 ------- 1 0.0 3.0 99 215
r 0.94432 2 3 tcp 1040 ------- 1 0.0 3.0 89 195
r 0.94792 0 2 tcp 1040 ------- 1 0.0 3.0 100 217
r 0.95264 2 3 tcp 1040 ------- 1 0.0 3.0 90 197
r 0.95624 0 2 tcp 1040 ------- 1 0.0 3.0 101 219
r 0.96096 2 3 tcp 1040 ------- 1 0.0 3.0 91 199
r 0.96456 0 2 tcp 1040 ------- 1 0.0 3.0 102 221
r 0.96928 2 3 tcp 1040 ------- 1 0.0 3.0 92 201
r 0.97288 0 2 tcp 1040 ------- 1 0.0 3.0 103 223
r 0.9776 2 3 tcp 1040 ------- 1 0.0 3.0 93 203
r 0.9812 0 2 tcp 1040 ------- 1 0.0 3.0 104 225
r 0.98592 2 3 tcp 1040 ------- 1 0.0 3.0 94 205
r 0.98952 0 2 tcp 1040 ------- 1 0.0 3.0 105 227
r 0.99424 2 3 tcp 1040 ------- 1 0.0 3.0 95 207
r 0.99784 0 2 tcp 1040 ------- 1 0.0 3.0 106 229
r 1.00256 2 3 tcp 1040 ------- 1 0.0 3.0 96 209
r 1.00616 0 2 tcp 1040 ------- 1 0.0 3.0 107 231
r 1.01088 2 3 tcp 1040 ------- 1 0.0 3.0 97 211
r 1.01448 0 2 tcp 1040 ------- 1 0.0 3.0 108 233
r 1.0192 2 3 tcp 1040 ------- 1 0.0 3.0 98 213
r 1.0228 0 2 tcp 1040 ------- 1 0.0 3.0 109 235
r 1.02752 2 3 tcp 1040 ------- 1 0.0 3.0 99 215
r 1.03112 0 2 tcp 1040 ------- 1 0.0 3.0 110 237
r 1.03584 2 3 tcp 1040 ------- 1 0.0 3.0 100 217
r 1.03944 0 2 tcp 1040 ------- 1 0.0 3.0 111 239
r 1.04416 2 3 tcp 1040 ------- 1 0.0 3.0 101 219
r 1.04776 0 2 tcp 1040 ------- 1 0.0 3.0 112 241
r 1.05248 2 3 tcp 1040 ------- 1 0.0 3.0 102 221
r 1.05608 0 2 tcp 1040 ------- 1 0.0 3.0 113 243
r 1.0608 2 3 tcp 1040 ------- 1 0.0 3.0 103 223
r 1.0644 0 2 tcp 1040 ------- 1 0.0 3.0 114 245
r 1.06912 2 3 tcp 1040 ------- 1 0.0 3.0 104 225
r 1.07272 0 2 tcp 1040 ------- 1 0.0 3.0 115 247
r 1.07744 2 3 tcp 1040 ------- 1 0.0 3.0 105 227
r 1.08104 0 2 tcp 1040 ------- 1 0.0 3.0 116 249
r 1.08576 2 3 tcp 1040 ------- 1 0.0 3.0 106 229
r 1.08936 0 2 tcp 1040 ------- 1 0.0 3.0 117 251
r 1.09408 2 3 tcp 1040 ------- 1 0.0 3.0 107 231
r 1.09768 0 2 tcp 1040 ------- 1 0.0 3.0 118 253
r 1.1024 2 3 tcp 1040 ------- 1 0.0 3.0 108 233
r 1.106 0 2 tcp 1040 ------- 1 0.0 3.0 119 255
r 1.11072 2 3 tcp 1040 ------- 1 0.0 3.0 109 235
r 1.11432 0 2 tcp 1040 ------- 1 0.0 3.0 120 257
r 1.11904 2 3 tcp 1040 ------- 1 0.0 3.0 110 237
r 1.12264 0 2 tcp 1040 ------- 1 0.0 3.0 121 259
r 1.12736 2 3 tcp 1040 ------- 1 0.0 3.0 111 239
r 1.13096 0 2 tcp 1040 ------- 1 0.0 3.0 122 261
r 1.13568 2 3 tcp 1040 ------- 1 0.0 3.0 112 241
r 1.13928 0 2 tcp 1040 ------- 1 0.0 3.0 123 263
r 1.144 2 3 tcp 1040 ------- 1 0.0 3.0 113 243
r 1.1476 0 2 tcp 1040 ------- 1 0.0 3.0 124 265
r 1.15232 2 3 tcp 1040 ------- 1 0.0 3.0 114 245
r 1.15592 0 2 tcp 1040 ------- 1 0.0 3.0 125 267
r 1.16064 2 3 tcp 1040 ------- 1 0.0 3.0 115 247
r 1.16424 0 2 tcp 1040 ------- 1 0.0 3.0 126 269
r 1.16896 2 3 tcp 1040 ------- 1 0.0 3.0 116 249
r 1.17256 0 2 tcp 1040 ------- 1 0.0 3.0 127 271
r 1.17728 2 3 tcp 1040 ------- 1 0.0 3.0 117 251
r 1.18088 0 2 tcp 1040 ------- 1 0.0 3.0 128 273
r 1.1856 2 3 tcp 1040 ------- 1 0.0 3.0 118 253
r 1.1892 0 2 tcp 1040 ------- 1 0.0 3.0 129 276
r 1.19392 2 3 tcp 1040 ------- 1 0.0 3.0 119 255
r 1.19752 0 2 tcp 1040 ------- 1 0.0 3.0 130 278
r 1.20224 2 3 tcp 1040 ------- 1 0.0 3.0 120 257
r 1.20584 0 2 tcp 1040 ------- 1 0.0 3.0 131 280
r 1.21056 2 3 tcp 1040 ------- 1 0.0 3.0 121 259
r 1.21416 0 2 tcp 1040 ------- 1 0.0 3.0 132 282
r 1.21888 2 3 tcp 1040 ------- 1 0.0 3.0 122 261
r 1.22248 0 2 tcp 1040 ------- 1 0.0 3.0 133 284
r 1.2272 2 3 tcp 1040 ------- 1 0.0 3.0 123 263
r 1.2308 0 2 tcp 1040 ------- 1 0.0 3.0 134 286
r 1.23552 2 3 tcp 1040 ------- 1 0.0 3.0 124 265
r 1.23912 0 2 tcp 1040 ------- 1 0.0 3.0 135 288
r 1.24384 2 3 tcp 1040 ------- 1 0.0 3.0 125 267
r 1.24744 0 2 tcp 1040 ------- 1 0.0 3.0 136 290
r 1.25216 2 3 tcp 1040 ------- 1 0.0 3.0 126 269
r 1.25576 0 2 tcp 1040 ------- 1 0.0 3.0 137 292
r 1.26048 2 3 tcp 1040 ------- 1 0.0 3.0 127 271
r 1.26408 0 2 tcp 1040 ------- 1 0.0 3.0 138 294
r 1.2688 2 3 tcp 1040 ------- 1 0.0 3.0 128 273
r 1.2724 0 2 tcp 1040 ------- 1 0.0 3.0 139 296
r 1.27712 2 3 tcp 1040 ------- 1 0.0 3.0 129 276
r 1.28072 0 2 tcp 1040 ------- 1 0.0 3.0 140 298
r 1.28544 2 3 tcp 1040 ------- 1 0.0 3.0 130 278
r 1.28904 0 2 tcp 1040 ------- 1 0.0 3.0 141 300
r 1.29376 2 3 tcp 1040 ------- 1 0.0 3.0 131 280
r 1.29736 0 2 tcp 1040 ------- 1 0.0 3.0 142 302
r 1.30208 2 3 tcp 1040 ------- 1 0.0 3.0 132 282
r 1.30568 0 2 tcp 1040 ------- 1 0.0 3.0 143 304
r 1.3104 2 3 tcp 1040 ------- 1 0.0 3.0 133 284
r 1.314 0 2 tcp 1040 ------- 1 0.0 3.0 144 306
r 1.31872 2 3 tcp 1040 ------- 1 0.0 3.0 134 286
r 1.32232 0 2 tcp 1040 ------- 1 0.0 3.0 145 308
r 1.32704 2 3 tcp 1040 ------- 1 0.0 3.0 135 288
r 1.33064 0 2 tcp 1040 ------- 1 0.0 3.0 146 310
r 1.33536 2 3 tcp 1040 ------- 1 0.0 3.0 136 290
r 1.33896 0 2 tcp 1040 ------- 1 0.0 3.0 147 312
r 1.34368 2 3 tcp 1040 ------- 1 0.0 3.0 137 292
r 1.34728 0 2 tcp 1040 ------- 1 0.0 3.0 148 314
r 1.352 2 3 tcp 1040 ------- 1 0.0 3.0 138 294
r 1.3556 0 2 tcp 1040 ------- 1 0.0 3.0 149 316
r 1.36032 2 3 tcp 1040 ------- 1 0.0 3.0 139 296
r 1.36392 0 2 tcp 1040 ------- 1 0.0 3.0 150 318
r 1.36864 2 3 tcp 1040 ------- 1 0.0 3.0 140 298
r 1.37224 0 2 tcp 1040 ------- 1 0.0 3.0 151 320
r 1.37696 2 3 tcp 1040 ------- 1 0.0 3.0 141 300
r 1.38056 0 2 tcp 1040 ------- 1 0.0 3.0 152 322
r 1.38528 2 3 tcp 1040 ------- 1 0.0 3.0 142 302
r 1.38888 0 2 tcp 1040 ------- 1 0.0 3.0 153 324
r 1.3936 2 3 tcp 1040 ------- 1 0.0 3.0 143 304
r 1.3972 0 2 tcp 1040 ------- 1 0.0 3.0 154 326
r 1.40192 2 3 tcp 1040 ------- 1 0.0 3.0 144 306
r 1.40552 0 2 tcp 1040 ------- 1 0.0 3.0 155 328
r 1.41024 2 3 tcp 1040 ------- 1 0.0 3.0 145 308
r 1.41384 0 2 tcp 1040 ------- 1 0.0 3.0 156 330
r 1.41856 2 3 tcp 1040 ------- 1 0.0 3.0 146 310
r 1.42216 0 2 tcp 1040 ------- 1 0.0 3.0 157 332
r 1.42688 2 3 tcp 1040 ------- 1 0.0 3.0 147 312
r 1.43048 0 2 tcp 1040 ------- 1 0.0 3.0 158 334
r 1.4352 2 3 tcp 1040 ------- 1 0.0 3.0 148 314
r 1.4388 0 2 tcp 1040 ------- 1 0.0 3.0 159 336
r 1.44352 2 3 tcp 1040 ------- 1 0.0 3.0 149 316
r 1.44712 0 2 tcp 1040 ------- 1 0.0 3.0 160 338
r 1.45184 2 3 tcp 1040 ------- 1 0.0 3.0 150 318
r 1.45544 0 2 tcp 1040 ------- 1 0.0 3.0 161 340
r 1.46016 2 3 tcp 1040 ------- 1 0.0 3.0 151 320
r 1.46376 0 2 tcp 1040 ------- 1 0.0 3.0 162 342
r 1.46848 2 3 tcp 1040 ------- 1 0.0 3.0 152 322
r 1.47208 0 2 tcp 1040 ------- 1 0.0 3.0 163 344
r 1.4768 2 3 tcp 1040 ------- 1 0.0 3.0 153 324
r 1.4804 0 2 tcp 1040 ------- 1 0.0 3.0 164 346
r 1.48512 2 3 tcp 1040 ------- 1 0.0 3.0 154 326
r 1.48872 0 2 tcp 1040 ------- 1 0.0 3.0 165 348
r 1.49344 2 3 tcp 1040 ------- 1 0.0 3.0 155 328
r 1.49704 0 2 tcp 1040 ------- 1 0.0 3.0 166 350
r 1.50176 2 3 tcp 1040 ------- 1 0.0 3.0 156 330
r 1.50536 0 2 tcp 1040 ------- 1 0.0 3.0 167 352
r 1.51008 2 3 tcp 1040 ------- 1 0.0 3.0 157 332
r 1.51368 0 2 tcp 1040 ------- 1 0.0 3.0 168 354
r 1.5184 2 3 tcp 1040 ------- 1 0.0 3.0 158 334
r 1.522 0 2 tcp 1040 ------- 1 0.0 3.0 169 356
r 1.52672 2 3 tcp 1040 ------- 1 0.0 3.0 159 336
r 1.53032 0 2 tcp 1040 ------- 1 0.0 3.0 170 358
r 1.53504 2 3 tcp 1040 ------- 1 0.0 3.0 160 338
r 1.53864 0 2 tcp 1040 ------- 1 0.0 3.0 171 360
r 1.54336 2 3 tcp 1040 ------- 1 0.0 3.0 161 340
r 1.54696 0 2 tcp 1040 ------- 1 0.0 3.0 172 362
r 1.55168 2 3 tcp 1040 ------- 1 0.0 3.0 162 342
r 1.55528 0 2 tcp 1040 ------- 1 0.0 3.0 173 364
r 1.56 2 3 tcp 1040 ------- 1 0.0 3.0 163 344
r 1.5636 0 2 tcp 1040 ------- 1 0.0 3.0 174 366
r 1.56832 2 3 tcp 1040 ------- 1 0.0 3.0 164 346
r 1.57192 0 2 tcp 1040 ------- 1 0.0 3.0 175 368
r 1.57664 2 3 tcp 1040 ------- 1 0.0 3.0 165 348
r 1.58024 0 2 tcp 1040 ------- 1 0.0 3.0 176 370
r 1.58496 2 3 tcp 1040 ------- 1 0.0 3.0 166 350
r 1.58856 0 2 tcp 1040 ------- 1 0.0 3.0 177 372
r 1.59328 2 3 tcp 1040 ------- 1 0.0 3.0 167 352
r 1.59688 0 2 tcp 1040 ------- 1 0.0 3.0 178 374
r 1.6016 2 3 tcp 1040 ------- 1 0.0 3.0 168 354
r 1.6052 0 2 tcp 1040 ------- 1 0.0 3.0 179 376
r 1.60992 2 3 tcp 1040 ------- 1 0.0 3.0 169 356
r 1.61352 0 2 tcp 1040 ------- 1 0.0 3.0 180 378
r 1.61824 2 3 tcp 1040 ------- 1 0.0 3.0 170 358
r 1.62184 0 2 tcp 1040 ------- 1 0.0 3.0 181 380
r 1.62656 2 3 tcp 1040 ------- 1 0.0 3.0 171 360
r 1.63016 0 2 tcp 1040 ------- 1 0.0 3.0 182 382
r 1.63488 2 3 tcp 1040 ------- 1 0.0 3.0 172 362
r 1.63848 0 2 tcp 1040 ------- 1 0.0 3.0 183 384
r 1.6432 2 3 tcp 1040 ------- 1 0.0 3.0 173 364
r 1.6468 0 2 tcp 1040 ------- 1 0.0 3.0 184 386
r 1.65152 2 3 tcp 1040 ------- 1 0.0 3.0 174 366
r 1.65512 0 2 tcp 1040 ------- 1 0.0 3.0 185 388
r 1.65984 2 3 tcp 1040 ------- 1 0.0 3.0 175 368
r 1.66344 0 2 tcp 1040 ------- 1 0.0 3.0 186 390
r 1.66816 2 3 tcp 1040 ------- 1 0.0 3.0 176 370
r 1.67176 0 2 tcp 1040 ------- 1 0.0 3.0 187 392
r 1.67648 2 3 tcp 1040 ------- 1 0.0 3.0 177 372
r 1.68008 0 2 tcp 1040 ------- 1 0.0 3.0 188 394
r 1.6848 2 3 tcp 1040 ------- 1 0.0 3.0 178 374
r 1.6884 0 2 tcp 1040 ------- 1 0.0 3.0 189 396
r 1.69312 2 3 tcp 1040 ------- 1 0.0 3.0 179 376
r 1.69672 0 2 tcp 1040 ------- 1 0.0 3.0 190 398
r 1.70144 2 3 tcp 1040 ------- 1 0.0 3.0 180 378
r 1.70504 0 2 tcp 1040 ------- 1 0.0 3.0 191 400
r 1.70976 2 3 tcp 1040 ------- 1 0.0 3.0 181 380
r 1.71336 0 2 tcp 1040 ------- 1 0.0 3.0 192 402
r 1.71808 2 3 tcp 1040 ------- 1 0.0 3.0 182 382
r 1.72168 0 2 tcp 1040 ------- 1 0.0 3.0 193 404
r 1.7264 2 3 tcp 1040 ------- 1 0.0 3.0 183 384
r 1.73 0 2 tcp 1040 ------- 1 0.0 3.0 194 406
r 1.73472 2 3 tcp 1040 ------- 1 0.0 3.0 184 386
r 1.73832 0 2 tcp 1040 ------- 1 0.0 3.0 195 408
r 1.74304 2 3 tcp 1040 ------- 1 0.0 3.0 185 388
r 1.74664 0 2 tcp 1040 ------- 1 0.0 3.0 196 410
r 1.75136 2 3 tcp 1040 ------- 1 0.0 3.0 186 390
r 1.75496 0 2 tcp 1040 ------- 1 0.0 3.0 197 412
r 1.75968 2 3 tcp 1040 ------- 1 0.0 3.0 187 392
r 1.76328 0 2 tcp 1040 ------- 1 0.0 3.0 198 414
r 1.768 2 3 tcp 1040 ------- 1 0.0 3.0 188 394
r 1.7716 0 2 tcp 1040 ------- 1 0.0 3.0 199 416
r 1.77632 2 3 tcp 1040 ------- 1 0.0 3.0 189 396
r 1.77992 0 2 tcp 1040 ------- 1 0.0 3.0 200 418
r 1.78464 2 3 tcp 1040 ------- 1 0.0 3.0 190 398
r 1.78824 0 2 tcp 1040 ------- 1 0.0 3.0 201 420
r 1.79296 2 3 tcp 1040 ------- 1 0.0 3.0 191 400
r 1.79656 0 2 tcp 1040 ------- 1 0.0 3.0 202 422
r 1.80128 2 3 tcp 1040 ------- 1 0.0 3.0 192 402
r 1.80488 0 2 tcp 1040 ------- 1 0.0 3.0 203 424
r 1.8096 2 3 tcp 1040 ------- 1 0.0 3.0 193 404
r 1.8132 0 2 tcp 1040 ------- 1 0.0 3.0 204 426
r 1.81792 2 3 tcp 1040 ------- 1 0.0 3.0 194 406
r 1.82152 0 2 tcp 1040 ------- 1 0.0 3.0 205 428
r 1.82624 2 3 tcp 1040 ------- 1 0.0 3.0 195 408
r 1.82984 0 2 tcp 1040 ------- 1 0.0 3.0 206 430
r 1.83456 2 3 tcp 1040 ------- 1 0.0 3.0 196 410
r 1.83816 0 2 tcp 1040 ------- 1 0.0 3.0 207 432
r 1.84288 2 3 tcp 1040 ------- 1 0.0 3.0 197 412
r 1.84648 0 2 tcp 1040 ------- 1 0.0 3.0 208 434
r 1.8512 2 3 tcp 1040 ------- 1 0.0 3.0 198 414
r 1.8548 0 2 tcp 1040 ------- 1 0.0 3.0 209 436
r 1.85952 2 3 tcp 1040 ------- 1 0.0 3.0 199 416
r 1.86312 0 2 tcp 1040 ------- 1 0.0 3.0 210 438
r 1.86784 2 3 tcp 1040 ------- 1 0.0 3.0 200 418
r 1.87144 0 2 tcp 1040 ------- 1 0.0 3.0 211 440
r 1.87616 2 3 tcp 1040 ------- 1 0.0 3.0 201 420
r 1.87976 0 2 tcp 1040 ------- 1 0.0 3.0 212 442
r 1.88448 2 3 tcp 1040 ------- 1 0.0 3.0 202 422
r 1.88808 0 2 tcp 1040 ------- 1 0.0 3.0 213 444
r 1.8928 2 3 tcp 1040 ------- 1 0.0 3.0 203 424
r 1.8964 0 2 tcp 1040 ------- 1 0.0 3.0 214 446
r 1.90112 2 3 tcp 1040 ------- 1 0.0 3.0 204 426
r 1.90472 0 2 tcp 1040 ------- 1 0.0 3.0 215 448
r 1.90944 2 3 tcp 1040 ------- 1 0.0 3.0 205 428
r 1.91304 0 2 tcp 1040 ------- 1 0.0 3.0 216 450
r 1.91776 2 3 tcp 1040 ------- 1 0.0 3.0 206 430
r 1.92136 0 2 tcp 1040 ------- 1 0.0 3.0 217 452
r 1.92608 2 3 tcp 1040 ------- 1 0.0 3.0 207 432
r 1.92968 0 2 tcp 1040 ------- 1 0.0 3.0 218 454
r 1.9344 2 3 tcp 1040 ------- 1 0.0 3.0 208 434
r 1.938 0 2 tcp 1040 ------- 1 0.0 3.0 219 456
r 1.94272 2 3 tcp 1040 ------- 1 0.0 3.0 209 436
r 1.94632 0 2 tcp 1040 ------- 1 0.0 3.0 220 458
r 1.95104 2 3 tcp 1040 ------- 1 0.0 3.0 210 438
r 1.95464 0 2 tcp 1040 ------- 1 0.0 3.0 221 460
r 1.95936 2 3 tcp 1040 ------- 1 0.0 3.0 211 440
r 1.96296 0 2 tcp 1040 ------- 1 0.0 3.0 222 462
r 1.96768 2 3 tcp 1040 ------- 1 0.0 3.0 212 442
r 1.97128 0 2 tcp 1040 ------- 1 0.0 3.0 223 465
r 1.976 2 3 tcp 1040 ------- 1 0.0 3.0 213 444
r 1.9796 0 2 tcp 1040 ------- 1 0.0 3.0 224 467
r 1.98432 2 3 tcp 1040 ------- 1 0.0 3.0 214 446
r 1.98792 0 2 tcp 1040 ------- 1 0.0 3.0 225 469
r 1.99264 2 3 tcp 1040 ------- 1 0.0 3.0 215 448
r 1.99624 0 2 tcp 1040 ------- 1 0.0 3.0 226 471
r 2.00096 2 3 tcp 1040 ------- 1 0.0 3.0 216 450
r 2.00456 0 2 tcp 1040 ------- 1 0.0 3.0 227 473
r 2.00928 2 3 tcp 1040 ------- 1 0.0 3.0 217 452
r 2.01288 0 2 tcp 1040 ------- 1 0.0 3.0 228 475
r 2.0212 0 2 tcp 1040 ------- 1 0.0 3.0 229 477
r 2.02592 2 3 tcp 1040 ------- 1 0.0 3.0 219 456
r 2.02952 0 2 tcp 1040 ------- 1 0.0 3.0 230 479
r 2.03424 2 3 tcp 1040 ------- 1 0.0 3.0 220 458
r 2.03784 0 2 tcp 1040 ------- 1 0.0 3.0 231 481
r 2.04256 2 3 tcp 1040 ------- 1 0.0 3.0 221 460
r 2.04616 0 2 tcp 1040 ------- 1 0.0 3.0 232 483
r 2.05088 2 3 tcp 1040 ------- 1 0.0 3.0 222 462
r 2.05448 0 2 tcp 1040 ------- 1 0.0 3.0 233 485
r 2.0592 2 3 tcp 1040 ------- 1 0.0 3.0 223 465
r 2.0628 0 2 tcp 1040 ------- 1 0.0 3.0 234 487
r 2.06752 2 3 tcp 1040 ------- 1 0.0 3.0 224 467
r 2.07112 0 2 tcp 1040 ------- 1 0.0 3.0 235 489
r 2.07584 2 3 tcp 1040 ------- 1 0.0 3.0 225 469
r 2.07944 0 2 tcp 1040 ------- 1 0.0 3.0 236 490
r 2.08416 2 3 tcp 1040 ------- 1 0.0 3.0 226 471
r 2.08776 0 2 tcp 1040 ------- 1 0.0 3.0 237 492
r 2.09248 2 3 tcp 1040 ------- 1 0.0 3.0 227 473
r 2.09608 0 2 tcp 1040 ---A--- 1 0.0 3.0 218 497
r 2.1008 2 3 tcp 1040 ------- 1 0.0 3.0 228 475
r 2.10912 2 3 tcp 1040 ------- 1 0.0 3.0 229 477
r 2.11744 2 3 tcp 1040 ------- 1 0.0 3.0 230 479
r 2.12576 2 3 tcp 1040 ------- 1 0.0 3.0 231 481
r 2.13408 2 3 tcp 1040 ------- 1 0.0 3.0 232 483
r 2.1424 2 3 tcp 1040 ------- 1 0.0 3.0 233 485
r 2.15072 2 3 tcp 1040 ------- 1 0.0 3.0 234 487
r 2.15904 2 3 tcp 1040 ------- 1 0.0 3.0 235 489
r 2.16736 2 3 tcp 1040 ------- 1 0.0 3.0 236 490
r 2.17568 2 3 tcp 1040 ------- 1 0.0 3.0 237 492
r 2.184 2 3 tcp 1040 ---A--- 1 0.0 3.0 218 497
r 2.22296 0 2 tcp 1040 ------- 1 0.0 3.0 238 516
r 2.23128 0 2 tcp 1040 ------- 1 0.0 3.0 239 517
r 2.24128 2 3 tcp 1040 ------- 1 0.0 3.0 238 516
r 2.2496 2 3 tcp 1040 ------- 1 0.0 3.0 239 517
r 2.28024 0 2 tcp 1040 ------- 1 0.0 3.0 240 522
r 2.28856 0 2 tcp 1040 ------- 1 0.0 3.0 241 523
r 2.29688 0 2 tcp 1040 ------- 1 0.0 3.0 242 524
r 2.29856 2 3 tcp 1040 ------- 1 0.0 3.0 240 522
r 2.3052 0 2 tcp 1040 ------- 1 0.0 3.0 243 525
r 2.30688 2 3 tcp 1040 ------- 1 0.0 3.0 241 523
r 2.3152 2 3 tcp 1040 ------- 1 0.0 3.0 242 524
r 2.32352 2 3 tcp 1040 ------- 1 0.0 3.0 243 525
r 2.33752 0 2 tcp 1040 ------- 1 0.0 3.0 244 529
r 2.34584 0 2 tcp 1040 ------- 1 0.0 3.0 245 530
r 2.35416 0 2 tcp 1040 ------- 1 0.0 3.0 246 533
r 2.35584 2 3 tcp 1040 ------- 1 0.0 3.0 244 529
r 2.36248 0 2 tcp 1040 ------- 1 0.0 3.0 247 534
r 2.3708 0 2 tcp 1040 ------- 1 0.0 3.0 248 536
r 2.37248 2 3 tcp 1040 ------- 1 0.0 3.0 245 530
r 2.37912 0 2 tcp 1040 ------- 1 0.0 3.0 249 537
r 2.38744 0 2 tcp 1040 ------- 1 0.0 3.0 250 538
r 2.38912 2 3 tcp 1040 ------- 1 0.0 3.0 246 533
r 2.39576 0 2 tcp 1040 ------- 1 0.0 3.0 251 539
r 2.39744 2 3 tcp 1040 ------- 1 0.0 3.0 247 534
r 2.40408 0 2 tcp 1040 ------- 1 0.0 3.0 252 542
r 2.40576 2 3 tcp 1040 ------- 1 0.0 3.0 248 536
r 2.4124 0 2 tcp 1040 ------- 1 0.0 3.0 253 543
r 2.41408 2 3 tcp 1040 ------- 1 0.0 3.0 249 537
r 2.42072 0 2 tcp 1040 ------- 1 0.0 3.0 254 545
r 2.4224 2 3 tcp 1040 ------- 1 0.0 3.0 250 538
r 2.42904 0 2 tcp 1040 ------- 1 0.0 3.0 255 546
r 2.43072 2 3 tcp 1040 ------- 1 0.0 3.0 251 539
r 2.43736 0 2 tcp 1040 ------- 1 0.0 3.0 256 549
r 2.43904 2 3 tcp 1040 ------- 1 0.0 3.0 252 542
r 2.44568 0 2 tcp 1040 ------- 1 0.0 3.0 257 551
r 2.44736 2 3 tcp 1040 ------- 1 0.0 3.0 253 543
r 2.454 0 2 tcp 1040 ------- 1 0.0 3.0 258 554
r 2.45568 2 3 tcp 1040 ------- 1 0.0 3.0 254 545
r 2.46232 0 2 tcp 1040 ------- 1 0.0 3.0 259 556
r 2.464 2 3 tcp 1040 ------- 1 0.0 3.0 255 546
r 2.47064 0 2 tcp 1040 ------- 1 0.0 3.0 260 559
r 2.47232 2 3 tcp 1040 ------- 1 0.0 3.0 256 549
r 2.47896 0 2 tcp 1040 ------- 1 0.0 3.0 261 561
r 2.48064 2 3 tcp 1040 ------- 1 0.0 3.0 257 551
r 2.48728 0 2 tcp 1040 ------- 1 0.0 3.0 262 563
r 2.48896 2 3 tcp 1040 ------- 1 0.0 3.0 258 554
r 2.4956 0 2 tcp 1040 ------- 1 0.0 3.0 263 565
r 2.49728 2 3 tcp 1040 ------- 1 0.0 3.0 259 556
r 2.50392 0 2 tcp 1040 ------- 1 0.0 3.0 264 567
r 2.5056 2 3 tcp 1040 ------- 1 0.0 3.0 260 559
r 2.51224 0 2 tcp 1040 ------- 1 0.0 3.0 265 569
r 2.51392 2 3 tcp 1040 ------- 1 0.0 3.0 261 561
r 2.52056 0 2 tcp 1040 ------- 1 0.0 3.0 266 571
r 2.52224 2 3 tcp 1040 ------- 1 0.0 3.0 262 563
r 2.52888 0 2 tcp 1040 ------- 1 0.0 3.0 267 572
r 2.53056 2 3 tcp 1040 ------- 1 0.0 3.0 263 565
r 2.5372 0 2 tcp 1040 ------- 1 0.0 3.0 268 576
r 2.53888 2 3 tcp 1040 ------- 1 0.0 3.0 264 567
r 2.54552 0 2 tcp 1040 ------- 1 0.0 3.0 269 578
r 2.55384 0 2 tcp 1040 ------- 1 0.0 3.0 270 581
r 2.55552 2 3 tcp 1040 ------- 1 0.0 3.0 265 569
r 2.56216 0 2 tcp 1040 ------- 1 0.0 3.0 271 583
r 2.57048 0 2 tcp 1040 ------- 1 0.0 3.0 272 585
r 2.57216 2 3 tcp 1040 ------- 1 0.0 3.0 266 571
r 2.5788 0 2 tcp 1040 ------- 1 0.0 3.0 273 587
r 2.58712 0 2 tcp 1040 ------- 1 0.0 3.0 274 588
r 2.5888 2 3 tcp 1040 ------- 1 0.0 3.0 267 572
r 2.59544 0 2 tcp 1040 ------- 1 0.0 3.0 275 590
r 2.59712 2 3 tcp 1040 ------- 1 0.0 3.0 268 576
r 2.60376 0 2 tcp 1040 ------- 1 0.0 3.0 276 592
r 2.60544 2 3 tcp 1040 ------- 1 0.0 3.0 269 578
r 2.61208 0 2 tcp 1040 ------- 1 0.0 3.0 277 594
r 2.61376 2 3 tcp 1040 ------- 1 0.0 3.0 270 581
r 2.62208 2 3 tcp 1040 ------- 1 0.0 3.0 271 583
r 2.62776 0 2 tcp 1040 ------- 1 0.0 3.0 278 598
r 2.6304 2 3 tcp 1040 ------- 1 0.0 3.0 272 585
r 2.63608 0 2 tcp 1040 ------- 1 0.0 3.0 279 599
r 2.63872 2 3 tcp 1040 ------- 1 0.0 3.0 273 587
r 2.6444 0 2 tcp 1040 ------- 1 0.0 3.0 280 601
r 2.64704 2 3 tcp 1040 ------- 1 0.0 3.0 274 588
r 2.65272 0 2 tcp 1040 ------- 1 0.0 3.0 281 604
r 2.65536 2 3 tcp 1040 ------- 1 0.0 3.0 275 590
r 2.66104 0 2 tcp 1040 ------- 1 0.0 3.0 282 606
r 2.66368 2 3 tcp 1040 ------- 1 0.0 3.0 276 592
r 2.66936 0 2 tcp 1040 ------- 1 0.0 3.0 283 609
r 2.672 2 3 tcp 1040 ------- 1 0.0 3.0 277 594
r 2.67768 0 2 tcp 1040 ------- 1 0.0 3.0 284 611
r 2.68032 2 3 tcp 1040 ------- 1 0.0 3.0 278 598
r 2.686 0 2 tcp 1040 ------- 1 0.0 3.0 285 613
r 2.68864 2 3 tcp 1040 ------- 1 0.0 3.0 279 599
r 2.69432 0 2 tcp 1040 ------- 1 0.0 3.0 286 615
r 2.69696 2 3 tcp 1040 ------- 1 0.0 3.0 280 601
r 2.70264 0 2 tcp 1040 ------- 1 0.0 3.0 287 617
r 2.70528 2 3 tcp 1040 ------- 1 0.0 3.0 281 604
r 2.71096 0 2 tcp 1040 ------- 1 0.0 3.0 288 620
r 2.7136 2 3 tcp 1040 ------- 1 0.0 3.0 282 606
r 2.71928 0 2 tcp 1040 ------- 1 0.0 3.0 289 622
r 2.72192 2 3 tcp 1040 ------- 1 0.0 3.0 283 609
r 2.7276 0 2 tcp 1040 ------- 1 0.0 3.0 290 626
r 2.73024 2 3 tcp 1040 ------- 1 0.0 3.0 284 611
r 2.73592 0 2 tcp 1040 ------- 1 0.0 3.0 291 628
r 2.73856 2 3 tcp 1040 ------- 1 0.0 3.0 285 613
r 2.74424 0 2 tcp 1040 ------- 1 0.0 3.0 292 631
r 2.74688 2 3 tcp 1040 ------- 1 0.0 3.0 286 615
r 2.75256 0 2 tcp 1040 ------- 1 0.0 3.0 293 632
r 2.76088 0 2 tcp 1040 ------- 1 0.0 3.0 294 634
r 2.76352 2 3 tcp 1040 ------- 1 0.0 3.0 287 617
r 2.7692 0 2 tcp 1040 ------- 1 0.0 3.0 295 636
r 2.77184 2 3 tcp 1040 ------- 1 0.0 3.0 288 620
r 2.77752 0 2 tcp 1040 ------- 1 0.0 3.0 296 638
r 2.78584 0 2 tcp 1040 ------- 1 0.0 3.0 297 640
r 2.78848 2 3 tcp 1040 ------- 1 0.0 3.0 289 622
r 2.79416 0 2 tcp 1040 ------- 1 0.0 3.0 298 641
r 2.80248 0 2 tcp 1040 ------- 1 0.0 3.0 299 643
r 2.80512 2 3 tcp 1040 ------- 1 0.0 3.0 290 626
r 2.8108 0 2 tcp 1040 ------- 1 0.0 3.0 300 645
r 2.81912 0 2 tcp 1040 ------- 1 0.0 3.0 301 647
r 2.82176 2 3 tcp 1040 ------- 1 0.0 3.0 291 628
r 2.82744 0 2 tcp 1040 ------- 1 0.0 3.0 302 649
r 2.83008 2 3 tcp 1040 ------- 1 0.0 3.0 292 631
r 2.8384 2 3 tcp 1040 ------- 1 0.0 3.0 293 632
r 2.84408 0 2 tcp 1040 ------- 1 0.0 3.0 303 652
r 2.84672 2 3 tcp 1040 ------- 1 0.0 3.0 294 634
r 2.85504 2 3 tcp 1040 ------- 1 0.0 3.0 295 636
r 2.86072 0 2 tcp 1040 ------- 1 0.0 3.0 304 656
r 2.86336 2 3 tcp 1040 ------- 1 0.0 3.0 296 638
r 2.86904 0 2 tcp 1040 ------- 1 0.0 3.0 305 658
r 2.87168 2 3 tcp 1040 ------- 1 0.0 3.0 297 640
r 2.87736 0 2 tcp 1040 ------- 1 0.0 3.0 306 661
r 2.88 2 3 tcp 1040 ------- 1 0.0 3.0 298 641
r 2.88568 0 2 tcp 1040 ------- 1 0.0 3.0 307 662
r 2.88832 2 3 tcp 1040 ------- 1 0.0 3.0 299 643
r 2.894 0 2 tcp 1040 ------- 1 0.0 3.0 308 664
r 2.89664 2 3 tcp 1040 ------- 1 0.0 3.0 300 645
r 2.90232 0 2 tcp 1040 ------- 1 0.0 3.0 309 667
r 2.90496 2 3 tcp 1040 ------- 1 0.0 3.0 301 647
r 2.91064 0 2 tcp 1040 ------- 1 0.0 3.0 310 669
r 2.91328 2 3 tcp 1040 ------- 1 0.0 3.0 302 649
r 2.91896 0 2 tcp 1040 ------- 1 0.0 3.0 311 672
r 2.9216 2 3 tcp 1040 ------- 1 0.0 3.0 303 652
r 2.92728 0 2 tcp 1040 ------- 1 0.0 3.0 312 674
r 2.92992 2 3 tcp 1040 ------- 1 0.0 3.0 304 656
r 2.9356 0 2 tcp 1040 ------- 1 0.0 3.0 313 676
r 2.93824 2 3 tcp 1040 ------- 1 0.0 3.0 305 658
r 2.94392 0 2 tcp 1040 ------- 1 0.0 3.0 314 679