n -t * -s 0  -x 0 -y 150 -Z 0 -z 30  -v circle -c black
n -t * -s 1  -x 150 -y 150 -Z 0 -z 30  -v circle -c black
V -t * -v 1.0a5 -a 0
W -t * -x 500 -y 500
A -t * -n 1 -p 0 -o 0x7fffffff -c 30 -a 1
A -t * -h 1 -m 1073741823 -s 0
+ -t 0.000535000 -s 0 -d -1 -p AODV -e 106 -c 2 -a 0 -i 0 -k MAC 
- -t 0.000535000 -s 0 -d -1 -p AODV -e 106 -c 2 -a 0 -i 0 -k MAC
h -t 0.000535000 -s 0 -d -1 -p AODV -e 106 -c 2 -a 0 -i 0 -k MAC
r -t 0.001383500 -s 1 -d -1 -p AODV -e 48 -c 2 -a 0 -i 0 -k MAC
+ -t 0.002023500 -s 1 -d -1 -p ARP -e 86 -c 2 -a 0 -i 0 -k MAC 
- -t 0.002023500 -s 1 -d -1 -p ARP -e 86 -c 2 -a 0 -i 0 -k MAC
h -t 0.002023500 -s 1 -d -1 -p ARP -e 86 -c 2 -a 0 -i 0 -k MAC
r -t 0.002712000 -s 0 -d -1 -p ARP -e 28 -c 2 -a 0 -i 0 -k MAC
+ -t 0.003087000 -s 0 -d -1 -p ARP -e 86 -c 2 -a 0 -i 0 -k MAC 
- -t 0.003087000 -s 0 -d -1 -p ARP -e 86 -c 2 -a 0 -i 0 -k MAC
h -t 0.003087000 -s 0 -d -1 -p ARP -e 86 -c 2 -a 0 -i 0 -k MAC
r -t 0.003775500 -s 1 -d -1 -p ARP -e 28 -c 2 -a 0 -i 0 -k MAC
+ -t 0.003785500 -s 1 -d -1 -p ACK -e 38 -c 2 -a 0 -i 0 -k MAC 
- -t 0.003785500 -s 1 -d -1 -p ACK -e 38 -c 2 -a 0 -i 0 -k MAC
h -t 0.003785500 -s 1 -d -1 -p ACK -e 38 -c 2 -a 0 -i 0 -k MAC
r -t 0.004090000 -s 0 -d -1 -p ACK -e 38 -c 2 -a 0 -i 0 -k MAC
+ -t 0.004139500 -s 1 -d 0 -p AODV -e 102 -c 2 -a 0 -i 0 -k MAC 
- -t 0.004139500 -s 1 -d 0 -p AODV -e 102 -c 2 -a 0 -i 0 -k MAC
h -t 0.004139500 -s 1 -d 0 -p AODV -e 102 -c 2 -a 0 -i 0 -k MAC
r -t 0.004956000 -s 0 -d 0 -p AODV -e 44 -c 2 -a 0 -i 0 -k MAC
+ -t 0.004966000 -s 0 -d -1 -p ACK -e 38 -c 2 -a 0 -i 0 -k MAC 
- -t 0.004966000 -s 0 -d -1 -p ACK -e 38 -c 2 -a 0 -i 0 -k MAC
h -t 0.004966000 -s 0 -d -1 -p ACK -e 38 -c 2 -a 0 -i 0 -k MAC
r -t 0.005270500 -s 1 -d -1 -p ACK -e 38 -c 2 -a 0 -i 0 -k MAC
+ -t 0.005480000 -s 0 -d 1 -p cbr -e 1578 -c 2 -a 0 -i 0 -k MAC 
- -t 0.005480000 -s 0 -d 1 -p cbr -e 1578 -c 2 -a 0 -i 0 -k MAC
h -t 0.005480000 -s 0 -d 1 -p cbr -e 1578 -c 2 -a 0 -i 0 -k MAC
d -t 0.016225000 -s 0 -d 1 -p cbr -e 1520 -c 2 -a 0 -i 27 -k IFQ
d -t 0.016825000 -s 0 -d 1 -p cbr -e 1520 -c 2 -a 0 -i 28 -k IFQ
d -t 0.017425000 -s 0 -d 1 -p cbr -e 1520 -c 2 -a 0 -i 29 -k IFQ
d -t 0.018025000 -s 0 -d 1 -p cbr -e 1520 -c 2 -a 0 -i 30 -k IFQ
r -t 0.018104500 -s 1 -d 1 -p cbr -e 1520 -c 2 -a 0 -i 0 -k MAC
+ -t 0.018114500 -s 1 -d -1 -p ACK -e 38 -c 2 -a 0 -i 0 -k MAC 
- -t 0.018114500 -s 1 -d -1 -p ACK -e 38 -c 2 -a 0 -i 0 -k MAC
h -t 0.018114500 -s 1 -d -1 -p ACK -e 38 -c 2 -a 0 -i 0 -k MAC
r -t 0.018419000 -s 0 -d -1 -p ACK -e 38 -c 2 -a 0 -i 0 -k MAC
+ -t 0.018709000 -s 0 -d 1 -p cbr -e 1578 -c 2 -a 0 -i 9 -k MAC 
- -t 0.018709000 -s 0 -d 1 -p cbr -e 1578 -c 2 -a 0 -i 9 -k MAC
h -t 0.018709000 -s 0 -d 1 -p cbr -e 1578 -c 2 -a 0 -i 9 -k MAC
d -t 0.019225000 -s 0 -d 1 -p cbr -e 1520 -c 2 -a 0 -i 32 -k IFQ
d -t 0.019825000 -s 0 -d 1 -p cbr -e 1520 -c 2 -a 0 -i 33 -k IFQ
d -t 0.020425000 -s 0 -d 1 -p cbr -e 1520 -c 2 -a 0 -i 34 -k IFQ
d -t 0.021025000 -s 0 -d 1 -p cbr -e 1520 -c 2 -a 0 -i 35 -k IFQ
d -t 0.021625000 -s 0 -d 1 -p cbr -e 1520 -c 2 -a 0 -i 36 -k IFQ
d -t 0.022225000 -s 0 -d 1 -p cbr -e 1520 -c 2 -a 0 -i 37 -k IFQ
d -t 0.022825000 -s 0 -d 1 -p cbr -e 1520 -c 2 -a 0 -i 38 -k IFQ
d -t 0.023425000 -s 0 -d 1 -p cbr -e 1520 -c 2 -a 0 -i 39 -k IFQ
d -t 0.024025000 -s 0 -d 1 -p cbr -e 1520 -c 2 -a 0 -i 40 -k IFQ
d -t 0.024625000 -s 0 -d 1 -p cbr -e 1520 -c 2 -a 0 -i 41 -k IFQ
d -t 0.025006000 -s 0 -d 1 -p cbr -e 1520 -c 2 -a 0 -i 2 -k IFQ
d -t 0.025225000 -s 0 -d 1 -p cbr -e 1520 -c 2 -a 0 -i 42 -k IFQ
d -t 0.025825000 -s 0 -d 1 -p cbr -e 1520 -c 2 -a 0 -i 43 -k IFQ
d -t 0.026425000 -s 0 -d 1 -p cbr -e 1520 -c 2 -a 0 -i 44 -k IFQ
d -t 0.027025000 -s 0 -d 1 -p cbr -e 1520 -c 2 -a 0 -i 45 -k IFQ
d -t 0.027625000 -s 0 -d 1 -p cbr -e 1520 -c 2 -a 0 -i 46 -k IFQ
d -t 0.028225000 -s 0 -d 1 -p cbr -e 1520 -c 2 -a 0 -i 47 -k IFQ
d -t 0.028825000 -s 0 -d 1 -p cbr -e 1520 -c 2 -a 0 -i 48 -k IFQ
d -t 0.029425000 -s 0 -d 1 -p cbr -e 1520 -c 2 -a 0 -i 49 -k IFQ
d -t 0.030025000 -s 0 -d 1 -p cbr -e 1520 -c 2 -a 0 -i 50 -k IFQ
d -t 0.030625000 -s 0 -d 1 -p cbr -e 1520 -c 2 -a 0 -i 51 -k IFQ
d -t 0.031225000 -s 0 -d 1 -p cbr -e 1520 -c 2 -a 0 -i 52 -k IFQ
r -t 0.031333500 -s 1 -d 1 -p cbr -e 1520 -c 2 -a 0 -i 9 -k MAC
+ -t 0.031343500 -s 1 -d -1 -p ACK -e 38 -c 2 -a 0 -i 0 -k MAC 
- -t 0.031343500 -s 1 -d -1 -p ACK -e 38 -c 2 -a 0 -i 0 -k MAC
h -t 0.031343500 -s 1 -d -1 -p ACK -e 38 -c 2 -a 0 -i 0 -k MAC
r -t 0.031648000 -s 0 -d -1 -p ACK -e 38 -c 2 -a 0 -i 0 -k MAC
+ -t 0.032058000 -s 0 -d 1 -p cbr -e 1578 -c 2 -a 0 -i 10 -k MAC 
- -t 0.032058000 -s 0 -d 1 -p cbr -e 1578 -c 2 -a 0 -i 10 -k MAC
h -t 0.032058000 -s 0 -d 1 -p cbr -e 1578 -c 2 -a 0 -i 10 -k MAC
d -t 0.032425000 -s 0 -d 1 -p cbr -e 1520 -c 2 -a 0 -i 54 -k IFQ
d -t 0.033025000 -s 0 -d 1 -p cbr -e 1520 -c 2 -a 0 -i 55 -k IFQ
d -t 0.033625000 -s 0 -d 1 -p cbr -e 1520 -c 2 -a 0 -i 56 -k IFQ
d -t 0.034225000 -s 0 -d 1 -p cbr -e 1520 -c 2 -a 0 -i 57 -k IFQ
d -t 0.034825000 -s 0 -d 1 -p cbr -e 1520 -c 2 -a 0 -i 58 -k IFQ
d -t 0.035006000 -s 0 -d 1 -p cbr -e 1520 -c 2 -a 0 -i 3 -k IFQ
d -t 0.035425000 -s 0 -d 1 -p cbr -e 1520 -c 2 -a 0 -i 59 -k IFQ
d -t 0.036025000 -s 0 -d 1 -p cbr -e 1520 -c 2 -a 0 -i 60 -k IFQ
d -t 0.036625000 -s 0 -d 1 -p cbr -e 1520 -c 2 -a 0 -i 61 -k IFQ
d -t 0.037225000 -s 0 -d 1 -p cbr -e 1520 -c 2 -a 0 -i 62 -k IFQ
d -t 0.037825000 -s 0 -d 1 -p cbr -e 1520 -c 2 -a 0 -i 63 -k IFQ
d -t 0.038425000 -s 0 -d 1 -p cbr -e 1520 -c 2 -a 0 -i 64 -k IFQ
d -t 0.039025000 -s 0 -d 1 -p cbr -e 1520 -c 2 -a 0 -i 65 -k IFQ
d -t 0.039625000 -s 0 -d 1 -p cbr -e 1520 -c 2 -a 0 -i 66 -k IFQ
d -t 0.040225000 -s 0 -d 1 -p cbr -e 1520 -c 2 -a 0 -i 67 -k IFQ
d -t 0.040825000 -s 0 -d 1 -p cbr -e 1520 -c 2 -a 0 -i 68 -k IFQ
d -t 0.041425000 -s 0 -d 1 -p cbr -e 1520 -c 2 -a 0 -i 69 -k IFQ
d -t 0.042025000 -s 0 -d 1 -p cbr -e 1520 -c 2 -a 0 -i 70 -k IFQ
d -t 0.042625000 -s 0 -d 1 -p cbr -e 1520 -c 2 -a 0 -i 71 -k IFQ
d -t 0.043225000 -s 0 -d 1 -p cbr -e 1520 -c 2 -a 0 -i 72 -k IFQ
d -t 0.043825000 -s 0 -d 1 -p cbr -e 1520 -c 2 -a 0 -i 73 -k IFQ
d -t 0.044425000 -s 0 -d 1 -p cbr -e 1520 -c 2 -a 0 -i 74 -k IFQ
r -t 0.044682500 -s 1 -d 1 -p cbr -e 1520 -c 2 -a 0 -i 10 -k MAC
+ -t 0.044692500 -s 1 -d -1 -p ACK -e 38 -c 2 -a 0 -i 0 -k MAC 
- -t 0.044692500 -s 1 -d -1 -p ACK -e 38 -c 2 -a 0 -i 0 -k MAC
h -t 0.044692500 -s 1 -d -1 -p ACK -e 38 -c 2 -a 0 -i 0 -k MAC
r -t 0.044997000 -s 0 -d -1 -p ACK -e 38 -c 2 -a 0 -i 0 -k MAC
d -t 0.045025000 -s 0 -d 1 -p cbr -e 1520 -c 2 -a 0 -i 75 -k IFQ
+ -t 0.045307000 -s 0 -d 1 -p cbr -e 1578 -c 2 -a 0 -i 11 -k MAC 
- -t 0.045307000 -s 0 -d 1 -p cbr -e 1578 -c 2 -a 0 -i 11 -k MAC
h -t 0.045307000 -s 0 -d 1 -p cbr -e 1578 -c 2 -a 0 -i 11 -k MAC
d -t 0.045625000 -s 0 -d 1 -p cbr -e 1520 -c 2 -a 0 -i 76 -k IFQ
d -t 0.046225000 -s 0 -d 1 -p cbr -e 1520 -c 2 -a 0 -i 77 -k IFQ
d -t 0.046825000 -s 0 -d 1 -p cbr -e 1520 -c 2 -a 0 -i 78 -k IFQ
d -t 0.047425000 -s 0 -d 1 -p cbr -e 1520 -c 2 -a 0 -i 79 -k IFQ
d -t 0.048025000 -s 0 -d 1 -p cbr -e 1520 -c 2 -a 0 -i 80 -k IFQ
d -t 0.048625000 -s 0 -d 1 -p cbr -e 1520 -c 2 -a 0 -i 81 -k IFQ
d -t 0.049225000 -s 0 -d 1 -p cbr -e 1520 -c 2 -a 0 -i 82 -k IFQ
d -t 0.049825000 -s 0 -d 1 -p cbr -e 1520 -c 2 -a 0 -i 83 -k IFQ
d -t 0.050425000 -s 0 -d 1 -p cbr -e 1520 -c 2 -a 0 -i 84 -k IFQ
d -t 0.051025000 -s 0 -d 1 -p cbr -e 1520 -c 2 -a 0 -i 85 -k IFQ
d -t 0.051625000 -s 0 -d 1 -p cbr -e 1520 -c 2 -a 0 -i 86 -k IFQ
d -t 0.052225000 -s 0 -d 1 -p cbr -e 1520 -c 2 -a 0 -i 87 -k IFQ
d -t 0.052825000 -s 0 -d 1 -p cbr -e 1520 -c 2 -a 0 -i 88 -k IFQ
d -t 0.053425000 -s 0 -d 1 -p cbr -e 1520 -c 2 -a 0 -i 89 -k IFQ
d -t 0.054025000 -s 0 -d 1 -p cbr -e 1520 -c 2 -a 0 -i 90 -k IFQ
d -t 0.054625000 -s 0 -d 1 -p cbr -e 1520 -c 2 -a 0 -i 91 -k IFQ
d -t 0.055006000 -s 0 -d 1 -p cbr -e 1520 -c 2 -a 0 -i 5 -k IFQ
d -t 0.055225000 -s 0 -d 1 -p cbr -e 1520 -c 2 -a 0 -i 92 -k IFQ
d -t 0.055825000 -s 0 -d 1 -p cbr -e 1520 -c 2 -a 0 -i 93 -k IFQ
d -t 0.056425000 -s 0 -d 1 -p cbr -e 1520 -c 2 -a 0 -i 94 -k IFQ
d -t 0.057025000 -s 0 -d 1 -p cbr -e 1520 -c 2 -a 0 -i 95 -k IFQ
d -t 0.057625000 -s 0 -d 1 -p cbr -e 1520 -c 2 -a 0 -i 96 -k IFQ
r -t 0.057931500 -s 1 -d 1 -p cbr -e 1520 -c 2 -a 0 -i 11 -k MAC
+ -t 0.057941500 -s 1 -d -1 -p ACK -e 38 -c 2 -a 0 -i 0 -k MAC 
- -t 0.057941500 -s 1 -d -1 -p ACK -e 38 -c 2 -a 0 -i 0 -k MAC
h -t 0.057941500 -s 1 -d -1 -p ACK -e 38 -c 2 -a 0 -i 0 -k MAC
d -t 0.058225000 -s 0 -d 1 -p cbr -e 1520 -c 2 -a 0 -i 97 -k IFQ
r -t 0.058246000 -s 0 -d -1 -p ACK -e 38 -c 2 -a 0 -i 0 -k MAC
+ -t 0.058536000 -s 0 -d 1 -p cbr -e 1578 -c 2 -a 0 -i 12 -k MAC 
- -t 0.058536000 -s 0 -d 1 -p cbr -e 1578 -c 2 -a 0 -i 12 -k MAC
h -t 0.058536000 -s 0 -d 1 -p cbr -e 1578 -c 2 -a 0 -i 12 -k MAC
d -t 0.059425000 -s 0 -d 1 -p cbr -e 1520 -c 2 -a 0 -i 99 -k IFQ
d -t 0.060025000 -s 0 -d 1 -p cbr -e 1520 -c 2 -a 0 -i 100 -k IFQ
d -t 0.060625000 -s 0 -d 1 -p cbr -e 1520 -c 2 -a 0 -i 101 -k IFQ
d -t 0.061225000 -s 0 -d 1 -p cbr -e 1520 -c 2 -a 0 -i 102 -k IFQ
d -t 0.061825000 -s 0 -d 1 -p cbr -e 1520 -c 2 -a 0 -i 103 -k IFQ
d -t 0.062425000 -s 0 -d 1 -p cbr -e 1520 -c 2 -a 0 -i 104 -k IFQ
d -t 0.063025000 -s 0 -d 1 -p cbr -e 1520 -c 2 -a 0 -i 105 -k IFQ
d -t 0.063625000 -s 0 -d 1 -p cbr -e 1520 -c 2 -a 0 -i 106 -k IFQ
d -t 0.064225000 -s 0 -d 1 -p cbr -e 1520 -c 2 -a 0 -i 107 -k IFQ
d -t 0.064825000 -s 0 -d 1 -p cbr -e 1520 -c 2 -a 0 -i 108 -k IFQ
d -t 0.065006000 -s 0 -d 1 -p cbr -e 1520 -c 2 -a 0 -i 6 -k IFQ
d -t 0.065425000 -s 0 -d 1 -p cbr -e 1520 -c 2 -a 0 -i 109 -k IFQ
d -t 0.066025000 -s 0 -d 1 -p cbr -e 1520 -c 2 -a 0 -i 110 -k IFQ
d -t 0.066625000 -s 0 -d 1 -p cbr -e 1520 -c 2 -a 0 -i 111 -k IFQ
d -t 0.067225000 -s 0 -d 1 -p cbr -e 1520 -c 2 -a 0 -i 112 -k IFQ
d -t 0.067825000 -s 0 -d 1 -p cbr -e 1520 -c 2 -a 0 -i 113 -k IFQ
d -t 0.068425000 -s 0 -d 1 -p cbr -e 1520 -c 2 -a 0 -i 114 -k IFQ
d -t 0.069025000 -s 0 -d 1 -p cbr -e 1520 -c 2 -a 0 -i 115 -k IFQ
d -t 0.069625000 -s 0 -d 1 -p cbr -e 1520 -c 2 -a 0 -i 116 -k IFQ
d -t 0.070225000 -s 0 -d 1 -p cbr -e 1520 -c 2 -a 0 -i 117 -k IFQ
d -t 0.070825000 -s 0 -d 1 -p cbr -e 1520 -c 2 -a 0 -i 118 -k IFQ
r -t 0.071160500 -s 1 -d 1 -p cbr -e 1520 -c 2 -a 0 -i 12 -k MAC
+ -t 0.071170500 -s 1 -d -1 -p ACK -e 38 -c 2 -a 0 -i 0 -k MAC 
- -t 0.071170500 -s 1 -d -1 -p ACK -e 38 -c 2 -a 0 -i 0 -k MAC
h -t 0.071170500 -s 1 -d -1 -p ACK -e 38 -c 2 -a 0 -i 0 -k MAC
d -t 0.071425000 -s 0 -d 1 -p cbr -e 1520 -c 2 -a 0 -i 119 -k IFQ
r -t 0.071475000 -s 0 -d -1 -p ACK -e 38 -c 2 -a 0 -i 0 -k MAC
+ -t 0.071565000 -s 0 -d 1 -p cbr -e 1578 -c 2 -a 0 -i 13 -k MAC 
- -t 0.071565000 -s 0 -d 1 -p cbr -e 1578 -c 2 -a 0 -i 13 -k MAC
h -t 0.071565000 -s 0 -d 1 -p cbr -e 1578 -c 2 -a 0 -i 13 -k MAC
d -t 0.072625000 -s 0 -d 1 -p cbr -e 1520 -c 2 -a 0 -i 121 -k IFQ
d -t 0.073225000 -s 0 -d 1 -p cbr -e 1520 -c 2 -a 0 -i 122 -k IFQ
d -t 0.073825000 -s 0 -d 1 -p cbr -e 1520 -c 2 -a 0 -i 123 -k IFQ
d -t 0.074425000 -s 0 -d 1 -p cbr -e 1520 -c 2 -a 0 -i 124 -k IFQ
d -t 0.075006000 -s 0 -d 1 -p cbr -e 1520 -c 2 -a 0 -i 7 -k IFQ
d -t 0.075025000 -s 0 -d 1 -p cbr -e 1520 -c 2 -a 0 -i 125 -k IFQ
d -t 0.075625000 -s 0 -d 1 -p cbr -e 1520 -c 2 -a 0 -i 126 -k IFQ
d -t 0.076225000 -s 0 -d 1 -p cbr -e 1520 -c 2 -a 0 -i 127 -k IFQ
d -t 0.076825000 -s 0 -d 1 -p cbr -e 1520 -c 2 -a 0 -i 128 -k IFQ
d -t 0.077425000 -s 0 -d 1 -p cbr -e 1520 -c 2 -a 0 -i 129 -k IFQ
d -t 0.078025000 -s 0 -d 1 -p cbr -e 1520 -c 2 -a 0 -i 130 -k IFQ
d -t 0.078625000 -s 0 -d 1 -p cbr -e 1520 -c 2 -a 0 -i 131 -k IFQ
d -t 0.079225000 -s 0 -d 1 -p cbr -e 1520 -c 2 -a 0 -i 132 -k IFQ
d -t 0.079825000 -s 0 -d 1 -p cbr -e 1520 -c 2 -a 0 -i 133 -k IFQ
d -t 0.080425000 -s 0 -d 1 -p cbr -e 1520 -c 2 -a 0 -i 134 -k IFQ
d -t 0.081025000 -s 0 -d 1 -p cbr -e 1520 -c 2 -a 0 -i 135 -k IFQ
d -t 0.081625000 -s 0 -d 1 -p cbr -e 1520 -c 2 -a 0 -i 136 -k IFQ
d -t 0.082225000 -s 0 -d 1 -p cbr -e 1520 -c 2 -a 0 -i 137 -k IFQ
d -t 0.082825000 -s 0 -d 1 -p cbr -e 1520 -c 2 -a 0 -i 138 -k IFQ
d -t 0.083425000 -s 0 -d 1 -p cbr -e 1520 -c 2 -a 0 -i 139 -k IFQ
d -t 0.084025000 -s 0 -d 1 -p cbr -e 1520 -c 2 -a 0 -i 140 -k IFQ
r -t 0.084189500 -s 1 -d 1 -p cbr -e 1520 -c 2 -a 0 -i 13 -k MAC
+ -t 0.084199500 -s 1 -d -1 -p ACK -e 38 -c 2 -a 0 -i 0 -k MAC 
- -t 0.084199500 -s 1 -d -1 -p ACK -e 38 -c 2 -a 0 -i 0 -k MAC
h -t 0.084199500 -s 1 -d -1 -p ACK -e 38 -c 2 -a 0 -i 0 -k MAC
r -t 0.084504000 -s 0 -d -1 -p ACK -e 38 -c 2 -a 0 -i 0 -k MAC
d -t 0.085006000 -s 0 -d 1 -p cbr -e 1520 -c 2 -a 0 -i 8 -k IFQ
+ -t 0.085094000 -s 0 -d 1 -p cbr -e 1578 -c 2 -a 0 -i 14 -k MAC 
- -t 0.085094000 -s 0 -d 1 -p cbr -e 1578 -c 2 -a 0 -i 14 -k MAC
h -t 0.085094000 -s 0 -d 1 -p cbr -e 1578 -c 2 -a 0 -i 14 -k MAC
d -t 0.085225000 -s 0 -d 1 -p cbr -e 1520 -c 2 -a 0 -i 142 -k IFQ
d -t 0.085825000 -s 0 -d 1 -p cbr -e 1520 -c 2 -a 0 -i 143 -k IFQ
d -t 0.086425000 -s 0 -d 1 -p cbr -e 1520 -c 2 -a 0 -i 144 -k IFQ
d -t 0.087025000 -s 0 -d 1 -p cbr -e 1520 -c 2 -a 0 -i 145 -k IFQ
d -t 0.087625000 -s 0 -d 1 -p cbr -e 1520 -c 2 -a 0 -i 146 -k IFQ
d -t 0.088225000 -s 0 -d 1 -p cbr -e 1520 -c 2 -a 0 -i 147 -k IFQ
d -t 0.088825000 -s 0 -d 1 -p cbr -e 1520 -c 2 -a 0 -i 148 -k IFQ
d -t 0.089425000 -s 0 -d 1 -p cbr -e 1520 -c 2 -a 0 -i 149 -k IFQ
d -t 0.090025000 -s 0 -d 1 -p cbr -e 1520 -c 2 -a 0 -i 150 -k IFQ
d -t 0.090625000 -s 0 -d 1 -p cbr -e 1520 -c 2 -a 0 -i 151 -k IFQ
d -t 0.091225000 -s 0 -d 1 -p cbr -e 1520 -c 2 -a 0 -i 152 -k IFQ
d -t 0.091825000 -s 0 -d 1 -p cbr -e 1520 -c 2 -a 0 -i 153 -k IFQ
d -t 0.092425000 -s 0 -d 1 -p cbr -e 1520 -c 2 -a 0 -i 154 -k IFQ
d -t 0.093025000 -s 0 -d 1 -p cbr -e 1520 -c 2 -a 0 -i 155 -k IFQ
d -t 0.093625000 -s 0 -d 1 -p cbr -e 1520 -c 2 -a 0 -i 156 -k IFQ
d -t 0.094225000 -s 0 -d 1 -p cbr -e 1520 -c 2 -a 0 -i 157 -k IFQ
d -t 0.094825000 -s 0 -d 1 -p cbr -e 1520 -c 2 -a 0 -i 158 -k IFQ
d -t 0.095425000 -s 0 -d 1 -p cbr -e 1520 -c 2 -a 0 -i 159 -k IFQ
d -t 0.096025000 -s 0 -d 1 -p cbr -e 1520 -c 2 -a 0 -i 160 -k IFQ
d -t 0.096625000 -s 0 -d 1 -p cbr -e 1520 -c 2 -a 0 -i 161 -k IFQ
d -t 0.097225000 -s 0 -d 1 -p cbr -e 1520 -c 2 -a 0 -i 162 -k IFQ
r -t 0.097718500 -s 1 -d 1 -p cbr -e 1520 -c 2 -a 0 -i 14 -k MAC
+ -t 0.097728500 -s 1 -d -1 -p ACK -e 38 -c 2 -a 0 -i 0 -k MAC 
- -t 0.097728500 -s 1 -d -1 -p ACK -e 38 -c 2 -a 0 -i 0 -k MAC
h -t 0.097728500 -s 1 -d -1 -p ACK -e 38 -c 2 -a 0 -i 0 -k MAC
d -t 0.097825000 -s 0 -d 1 -p cbr -e 1520 -c 2 -a 0 -i 163 -k IFQ
r -t 0.098033000 -s 0 -d -1 -p ACK -e 38 -c 2 -a 0 -i 0 -k MAC
+ -t 0.098243000 -s 0 -d 1 -p cbr -e 1578 -c 2 -a 0 -i 15 -k MAC 
- -t 0.098243000 -s 0 -d 1 -p cbr -e 1578 -c 2 -a 0 -i 15 -k MAC
h -t 0.098243000 -s 0 -d 1 -p cbr -e 1578 -c 2 -a 0 -i 15 -k MAC
d -t 0.099025000 -s 0 -d 1 -p cbr -e 1520 -c 2 -a 0 -i 165 -k IFQ
d -t 0.099625000 -s 0 -d 1 -p cbr -e 1520 -c 2 -a 0 -i 166 -k IFQ
d -t 0.100225000 -s 0 -d 1 -p cbr -e 1520 -c 2 -a 0 -i 167 -k IFQ
d -t 0.100825000 -s 0 -d 1 -p cbr -e 1520 -c 2 -a 0 -i 168 -k IFQ
d -t 0.101425000 -s 0 -d 1 -p cbr -e 1520 -c 2 -a 0 -i 169 -k IFQ
d -t 0.102025000 -s 0 -d 1 -p cbr -e 1520 -c 2 -a 0 -i 170 -k IFQ
d -t 0.102625000 -s 0 -d 1 -p cbr -e 1520 -c 2 -a 0 -i 171 -k IFQ
d -t 0.103225000 -s 0 -d 1 -p cbr -e 1520 -c 2 -a 0 -i 172 -k IFQ
d -t 0.103825000 -s 0 -d 1 -p cbr -e 1520 -c 2 -a 0 -i 173 -k IFQ
d -t 0.104425000 -s 0 -d 1 -p cbr -e 1520 -c 2 -a 0 -i 174 -k IFQ
d -t 0.105025000 -s 0 -d 1 -p cbr -e 1520 -c 2 -a 0 -i 175 -k IFQ
d -t 0.105625000 -s 0 -d 1 -p cbr -e 1520 -c 2 -a 0 -i 176 -k IFQ
d -t 0.106225000 -s 0 -d 1 -p cbr -e 1520 -c 2 -a 0 -i 177 -k IFQ
d -t 0.106825000 -s 0 -d 1 -p cbr -e 1520 -c 2 -a 0 -i 178 -k IFQ
d -t 0.107425000 -s 0 -d 1 -p cbr -e 1520 -c 2 -a 0 -i 179 -k IFQ
d -t 0.108025000 -s 0 -d 1 -p cbr -e 1520 -c 2 -a 0 -i 180 -k IFQ
d -t 0.108625000 -s 0 -d 1 -p cbr -e 1520 -c 2 -a 0 -i 181 -k IFQ
d -t 0.109225000 -s 0 -d 1 -p cbr -e 1520 -c 2 -a 0 -i 182 -k IFQ
d -t 0.109825000 -s 0 -d 1 -p cbr -e 1520 -c 2 -a 0 -i 183 -k IFQ
d -t 0.110425000 -s 0 -d 1 -p cbr -e 1520 -c 2 -a 0 -i 184 -k IFQ
r -t 0.110867500 -s 1 -d 1 -p cbr -e 1520 -c 2 -a 0 -i 15 -k MAC
+ -t 0.110877500 -s 1 -d -1 -p ACK -e 38 -c 2 -a 0 -i 0 -k MAC 
- -t 0.110877500 -s 1 -d -1 -p ACK -e 38 -c 2 -a 0 -i 0 -k MAC
h -t 0.110877500 -s 1 -d -1 -p ACK -e 38 -c 2 -a 0 -i 0 -k MAC
d -t 0.111025000 -s 0 -d 1 -p cbr -e 1520 -c 2 -a 0 -i 185 -k IFQ
r -t 0.111182000 -s 0 -d -1 -p ACK -e 38 -c 2 -a 0 -i 0 -k MAC
+ -t 0.111592000 -s 0 -d 1 -p cbr -e 1578 -c 2 -a 0 -i 16 -k MAC 
- -t 0.111592000 -s 0 -d 1 -p cbr -e 1578 -c 2 -a 0 -i 16 -k MAC
h -t 0.111592000 -s 0 -d 1 -p cbr -e 1578 -c 2 -a 0 -i 16 -k MAC
d -t 0.112225000 -s 0 -d 1 -p cbr -e 1520 -c 2 -a 0 -i 187 -k IFQ
d -t 0.112825000 -s 0 -d 1 -p cbr -e 1520 -c 2 -a 0 -i 188 -k IFQ
d -t 0.113425000 -s 0 -d 1 -p cbr -e 1520 -c 2 -a 0 -i 189 -k IFQ
d -t 0.114025000 -s 0 -d 1 -p cbr -e 1520 -c 2 -a 0 -i 190 -k IFQ
d -t 0.114625000 -s 0 -d 1 -p cbr -e 1520 -c 2 -a 0 -i 191 -k IFQ
d -t 0.115225000 -s 0 -d 1 -p cbr -e 1520 -c 2 -a 0 -i 192 -k IFQ
d -t 0.115825000 -s 0 -d 1 -p cbr -e 1520 -c 2 -a 0 -i 193 -k IFQ
d -t 0.116425000 -s 0 -d 1 -p cbr -e 1520 -c 2 -a 0 -i 194 -k IFQ
d -t 0.117025000 -s 0 -d 1 -p cbr -e 1520 -c 2 -a 0 -i 195 -k IFQ
d -t 0.117625000 -s 0 -d 1 -p cbr -e 1520 -c 2 -a 0 -i 196 -k IFQ
d -t 0.118225000 -s 0 -d 1 -p cbr -e 1520 -c 2 -a 0 -i 197 -k IFQ
d -t 0.118825000 -s 0 -d 1 -p cbr -e 1520 -c 2 -a 0 -i 198 -k IFQ
d -t 0.119425000 -s 0 -d 1 -p cbr -e 1520 -c 2 -a 0 -i 199 -k IFQ
d -t 0.120025000 -s 0 -d 1 -p cbr -e 1520 -c 2 -a 0 -i 200 -k IFQ
d -t 0.120625000 -s 0 -d 1 -p cbr -e 1520 -c 2 -a 0 -i 201 -k IFQ
d -t 0.121225000 -s 0 -d 1 -p cbr -e 1520 -c 2 -a 0 -i 202 -k IFQ
d -t 0.121825000 -s 0 -d 1 -p cbr -e 1520 -c 2 -a 0 -i 203 -k IFQ
d -t 0.122425000 -s 0 -d 1 -p cbr -e 1520 -c 2 -a 0 -i 204 -k IFQ
d -t 0.123025000 -s 0 -d 1 -p cbr -e 1520 -c 2 -a 0 -i 205 -k IFQ
d -t 0.123625000 -s 0 -d 1 -p cbr -e 1520 -c 2 -a 0 -i 206 -k IFQ
r -t 0.124216500 -s 1 -d 1 -p cbr -e 1520 -c 2 -a 0 -i 16 -k MAC
d -t 0.124225000 -s 0 -d 1 -p cbr -e 1520 -c 2 -a 0 -i 207 -k IFQ
+ -t 0.124226500 -s 1 -d -1 -p ACK -e 38 -c 2 -a 0 -i 0 -k MAC 
- -t 0.124226500 -s 1 -d -1 -p ACK -e 38 -c 2 -a 0 -i 0 -k MAC
h -t 0.124226500 -s 1 -d -1 -p ACK -e 38 -c 2 -a 0 -i 0 -k MAC
r -t 0.124531000 -s 0 -d -1 -p ACK -e 38 -c 2 -a 0 -i 0 -k MAC
+ -t 0.124821000 -s 0 -d 1 -p cbr -e 1578 -c 2 -a 0 -i 17 -k MAC 
- -t 0.124821000 -s 0 -d 1 -p cbr -e 1578 -c 2 -a 0 -i 17 -k MAC
h -t 0.124821000 -s 0 -d 1 -p cbr -e 1578 -c 2 -a 0 -i 17 -k MAC
d -t 0.125425000 -s 0 -d 1 -p cbr -e 1520 -c 2 -a 0 -i 209 -k IFQ
d -t 0.126025000 -s 0 -d 1 -p cbr -e 1520 -c 2 -a 0 -i 210 -k IFQ
d -t 0.126625000 -s 0 -d 1 -p cbr -e 1520 -c 2 -a 0 -i 211 -k IFQ
d -t 0.127225000 -s 0 -d 1 -p cbr -e 1520 -c 2 -a 0 -i 212 -k IFQ
d -t 0.127825000 -s 0 -d 1 -p cbr -e 1520 -c 2 -a 0 -i 213 -k IFQ
d -t 0.128425000 -s 0 -d 1 -p cbr -e 1520 -c 2 -a 0 -i 214 -k IFQ
d -t 0.129025000 -s 0 -d 1 -p cbr -e 1520 -c 2 -a 0 -i 215 -k IFQ
d -t 0.129625000 -s 0 -d 1 -p cbr -e 1520 -c 2 -a 0 -i 216 -k IFQ
d -t 0.130225000 -s 0 -d 1 -p cbr -e 1520 -c 2 -a 0 -i 217 -k IFQ
d -t 0.130825000 -s 0 -d 1 -p cbr -e 1520 -c 2 -a 0 -i 218 -k IFQ
d -t 0.131425000 -s 0 -d 1 -p cbr -e 1520 -c 2 -a 0 -i 219 -k IFQ
d -t 0.132025000 -s 0 -d 1 -p cbr -e 1520 -c 2 -a 0 -i 220 -k IFQ
d -t 0.132625000 -s 0 -d 1 -p cbr -e 1520 -c 2 -a 0 -i 221 -k IFQ
d -t 0.133225000 -s 0 -d 1 -p cbr -e 1520 -c 2 -a 0 -i 222 -k IFQ
d -t 0.133825000 -s 0 -d 1 -p cbr -e 1520 -c 2 -a 0 -i 223 -k IFQ
d -t 0.134425000 -s 0 -d 1 -p cbr -e 1520 -c 2 -a 0 -i 224 -k IFQ
d -t 0.135025000 -s 0 -d 1 -p cbr -e 1520 -c 2 -a 0 -i 225 -k IFQ
d -t 0.135625000 -s 0 -d 1 -p cbr -e 1520 -c 2 -a 0 -i 226 -k IFQ
d -t 0.136225000 -s 0 -d 1 -p cbr -e 1520 -c 2 -a 0 -i 227 -k IFQ
d -t 0.136825000 -s 0 -d 1 -p cbr -e 1520 -c 2 -a 0 -i 228 -k IFQ
d -t 0.137425000 -s 0 -d 1 -p cbr -e 1520 -c 2 -a 0 -i 229 -k IFQ
r -t 0.137445500 -s 1 -d 1 -p cbr -e 1520 -c 2 -a 0 -i 17 -k MAC
+ -t 0.137455500 -s 1 -d -1 -p ACK -e 38 -c 2 -a 0 -i 0 -k MAC 
- -t 0.137455500 -s 1 -d -1 -p ACK -e 38 -c 2 -a 0 -i 0 -k MAC
h -t 0.137455500 -s 1 -d -1 -p ACK -e 38 -c 2 -a 0 -i 0 -k MAC
r -t 0.137760000 -s 0 -d -1 -p ACK -e 38 -c 2 -a 0 -i 0 -k MAC
+ -t 0.137970000 -s 0 -d 1 -p cbr -e 1578 -c 2 -a 0 -i 18 -k MAC 
- -t 0.137970000 -s 0 -d 1 -p cbr -e 1578 -c 2 -a 0 -i 18 -k MAC
h -t 0.137970000 -s 0 -d 1 -p cbr -e 1578 -c 2 -a 0 -i 18 -k MAC
d -t 0.138625000 -s 0 -d 1 -p cbr -e 1520 -c 2 -a 0 -i 231 -k IFQ
d -t 0.139225000 -s 0 -d 1 -p cbr -e 1520 -c 2 -a 0 -i 232 -k IFQ
d -t 0.139825000 -s 0 -d 1 -p cbr -e 1520 -c 2 -a 0 -i 233 -k IFQ
d -t 0.140425000 -s 0 -d 1 -p cbr -e 1520 -c 2 -a 0 -i 234 -k IFQ
d -t 0.141025000 -s 0 -d 1 -p cbr -e 1520 -c 2 -a 0 -i 235 -k IFQ
d -t 0.141625000 -s 0 -d 1 -p cbr -e 1520 -c 2 -a 0 -i 236 -k IFQ
d -t 0.142225000 -s 0 -d 1 -p cbr -e 1520 -c 2 -a 0 -i 237 -k IFQ
d -t 0.142825000 -s 0 -d 1 -p cbr -e 1520 -c 2 -a 0 -i 238 -k IFQ
d -t 0.143425000 -s 0 -d 1 -p cbr -e 1520 -c 2 -a 0 -i 239 -k IFQ
d -t 0.144025000 -s 0 -d 1 -p cbr -e 1520 -c 2 -a 0 -i 240 -k IFQ
d -t 0.144625000 -s 0 -d 1 -p cbr -e 1520 -c 2 -a 0 -i 241 -k IFQ
d -t 0.145225000 -s 0 -d 1 -p cbr -e 1520 -c 2 -a 0 -i 242 -k IFQ
d -t 0.145825000 -s 0 -d 1 -p cbr -e 1520 -c 2 -a 0 -i 243 -k IFQ
d -t 0.146425000 -s 0 -d 1 -p cbr -e 1520 -c 2 -a 0 -i 244 -k IFQ
d -t 0.147025000 -s 0 -d 1 -p cbr -e 1520 -c 2 -a 0 -i 245 -k IFQ
d -t 0.147625000 -s 0 -d 1 -p cbr -e 1520 -c 2 -a 0 -i 246 -k IFQ
d -t 0.148225000 -s 0 -d 1 -p cbr -e 1520 -c 2 -a 0 -i 247 -k IFQ
d -t 0.148825000 -s 0 -d 1 -p cbr -e 1520 -c 2 -a 0 -i 248 -k IFQ
d -t 0.149425000 -s 0 -d 1 -p cbr -e 1520 -c 2 -a 0 -i 249 -k IFQ
d -t 0.150025000 -s 0 -d 1 -p cbr -e 1520 -c 2 -a 0 -i 250 -k IFQ
r -t 0.150594500 -s 1 -d 1 -p cbr -e 1520 -c 2 -a 0 -i 18 -k MAC
+ -t 0.150604500 -s 1 -d -1 -p ACK -e 38 -c 2 -a 0 -i 0 -k MAC 
- -t 0.150604500 -s 1 -d -1 -p ACK -e 38 -c 2 -a 0 -i 0 -k MAC
h -t 0.150604500 -s 1 -d -1 -p ACK -e 38 -c 2 -a 0 -i 0 -k MAC
d -t 0.150625000 -s 0 -d 1 -p cbr -e 1520 -c 2 -a 0 -i 251 -k IFQ
r -t 0.150909000 -s 0 -d -1 -p ACK -e 38 -c 2 -a 0 -i 0 -k MAC
+ -t 0.151439000 -s 0 -d 1 -p cbr -e 1578 -c 2 -a 0 -i 19 -k MAC 
- -t 0.151439000 -s 0 -d 1 -p cbr -e 1578 -c 2 -a 0 -i 19 -k MAC
h -t 0.151439000 -s 0 -d 1 -p cbr -e 1578 -c 2 -a 0 -i 19 -k MAC
d -t 0.151825000 -s 0 -d 1 -p cbr -e 1520 -c 2 -a 0 -i 253 -k IFQ
d -t 0.152425000 -s 0 -d 1 -p cbr -e 1520 -c 2 -a 0 -i 254 -k IFQ
d -t 0.153025000 -s 0 -d 1 -p cbr -e 1520 -c 2 -a 0 -i 255 -k IFQ
d -t 0.153625000 -s 0 -d 1 -p cbr -e 1520 -c 2 -a 0 -i 256 -k IFQ
d -t 0.154225000 -s 0 -d 1 -p cbr -e 1520 -c 2 -a 0 -i 257 -k IFQ
d -t 0.154825000 -s 0 -d 1 -p cbr -e 1520 -c 2 -a 0 -i 258 -k IFQ
d -t 0.155425000 -s 0 -d 1 -p cbr -e 1520 -c 2 -a 0 -i 259 -k IFQ
d -t 0.156025000 -s 0 -d 1 -p cbr -e 1520 -c 2 -a 0 -i 260 -k IFQ
d -t 0.156625000 -s 0 -d 1 -p cbr -e 1520 -c 2 -a 0 -i 261 -k IFQ
d -t 0.157225000 -s 0 -d 1 -p cbr -e 1520 -c 2 -a 0 -i 262 -k IFQ
d -t 0.157825000 -s 0 -d 1 -p cbr -e 1520 -c 2 -a 0 -i 263 -k IFQ
d -t 0.158425000 -s 0 -d 1 -p cbr -e 1520 -c 2 -a 0 -i 264 -k IFQ
d -t 0.159025000 -s 0 -d 1 -p cbr -e 1520 -c 2 -a 0 -i 265 -k IFQ
d -t 0.159625000 -s 0 -d 1 -p cbr -e 1520 -c 2 -a 0 -i 266 -k IFQ
d -t 0.160225000 -s 0 -d 1 -p cbr -e 1520 -c 2 -a 0 -i 267 -k IFQ
d -t 0.160825000 -s 0 -d 1 -p cbr -e 1520 -c 2 -a 0 -i 268 -k IFQ
d -t 0.161425000 -s 0 -d 1 -p cbr -e 1520 -c 2 -a 0 -i 269 -k IFQ
d -t 0.162025000 -s 0 -d 1 -p cbr -e 1520 -c 2 -a 0 -i 270 -k IFQ
d -t 0.162625000 -s 0 -d 1 -p cbr -e 1520 -c 2 -a 0 -i 271 -k IFQ
d -t 0.163225000 -s 0 -d 1 -p cbr -e 1520 -c 2 -a 0 -i 272 -k IFQ
d -t 0.163825000 -s 0 -d 1 -p cbr -e 1520 -c 2 -a 0 -i 273 -k IFQ
r -t 0.164063500 -s 1 -d 1 -p cbr -e 1520 -c 2 -a 0 -i 19 -k MAC
+ -t 0.164073500 -s 1 -d -1 -p ACK -e 38 -c 2 -a 0 -i 0 -k MAC 
- -t 0.164073500 -s 1 -d -1 -p ACK -e 38 -c 2 -a 0 -i 0 -k MAC
h -t 0.164073500 -s 1 -d -1 -p ACK -e 38 -c 2 -a 0 -i 0 -k MAC
r -t 0.164378000 -s 0 -d -1 -p ACK -e 38 -c 2 -a 0 -i 0 -k MAC
+ -t 0.164768000 -s 0 -d 1 -p cbr -e 1578 -c 2 -a 0 -i 20 -k MAC 
- -t 0.164768000 -s 0 -d 1 -p cbr -e 1578 -c 2 -a 0 -i 20 -k MAC
h -t 0.164768000 -s 0 -d 1 -p cbr -e 1578 -c 2 -a 0 -i 20 -k MAC
d -t 0.165025000 -s 0 -d 1 -p cbr -e 1520 -c 2 -a 0 -i 275 -k IFQ
d -t 0.165625000 -s 0 -d 1 -p cbr -e 1520 -c 2 -a 0 -i 276 -k IFQ
d -t 0.166225000 -s 0 -d 1 -p cbr -e 1520 -c 2 -a 0 -i 277 -k IFQ
d -t 0.166825000 -s 0 -d 1 -p cbr -e 1520 -c 2 -a 0 -i 278 -k IFQ
d -t 0.167425000 -s 0 -d 1 -p cbr -e 1520 -c 2 -a 0 -i 279 -k IFQ
d -t 0.168025000 -s 0 -d 1 -p cbr -e 1520 -c 2 -a 0 -i 280 -k IFQ
d -t 0.168625000 -s 0 -d 1 -p cbr -e 1520 -c 2 -a 0 -i 281 -k IFQ
d -t 0.169225000 -s 0 -d 1 -p cbr -e 1520 -c 2 -a 0 -i 282 -k IFQ
d -t 0.169825000 -s 0 -d 1 -p cbr -e 1520 -c 2 -a 0 -i 283 -k IFQ
d -t 0.170425000 -s 0 -d 1 -p cbr -e 1520 -c 2 -a 0 -i 284 -k IFQ
d -t 0.171025000 -s 0 -d 1 -p cbr -e 1520 -c 2 -a 0 -i 285 -k IFQ
d -t 0.171625000 -s 0 -d 1 -p cbr -e 1520 -c 2 -a 0 -i 286 -k IFQ
d -t 0.172225000 -s 0 -d 1 -p cbr -e 1520 -c 2 -a 0 -i 287 -k IFQ
d -t 0.172825000 -s 0 -d 1 -p cbr -e 1520 -c 2 -a 0 -i 288 -k IFQ
d -t 0.173425000 -s 0 -d 1 -p cbr -e 1520 -c 2 -a 0 -i 289 -k IFQ
d -t 0.174025000 -s 0 -d 1 -p cbr -e 1520 -c 2 -a 0 -i 290 -k IFQ
d -t 0.174625000 -s 0 -d 1 -p cbr -e 1520 -c 2 -a 0 -i 291 -k IFQ
d -t 0.175225000 -s 0 -d 1 -p cbr -e 1520 -c 2 -a 0 -i 292 -k IFQ
d -t 0.175825000 -s 0 -d 1 -p cbr -e 1520 -c 2 -a 0 -i 293 -k IFQ
d -t 0.176425000 -s 0 -d 1 -p cbr -e 1520 -c 2 -a 0 -i 294 -k IFQ
d -t 0.177025000 -s 0 -d 1 -p cbr -e 1520 -c 2 -a 0 -i 295 -k IFQ
r -t 0.177392500 -s 1 -d 1 -p cbr -e 1520 -c 2 -a 0 -i 20 -k MAC
+ -t 0.177402500 -s 1 -d -1 -p ACK -e 38 -c 2 -a 0 -i 0 -k MAC 
- -t 0.177402500 -s 1 -d -1 -p ACK -e 38 -c 2 -a 0 -i 0 -k MAC
h -t 0.177402500 -s 1 -d -1 -p ACK -e 38 -c 2 -a 0 -i 0 -k MAC
d -t 0.177625000 -s 0 -d 1 -p cbr -e 1520 -c 2 -a 0 -i 296 -k IFQ
r -t 0.177707000 -s 0 -d -1 -p ACK -e 38 -c 2 -a 0 -i 0 -k MAC
+ -t 0.178077000 -s 0 -d 1 -p cbr -e 1578 -c 2 -a 0 -i 21 -k MAC 
- -t 0.178077000 -s 0 -d 1 -p cbr -e 1578 -c 2 -a 0 -i 21 -k MAC
h -t 0.178077000 -s 0 -d 1 -p cbr -e 1578 -c 2 -a 0 -i 21 -k MAC
d -t 0.178825000 -s 0 -d 1 -p cbr -e 1520 -c 2 -a 0 -i 298 -k IFQ
d -t 0.179425000 -s 0 -d 1 -p cbr -e 1520 -c 2 -a 0 -i 299 -k IFQ
d -t 0.180025000 -s 0 -d 1 -p cbr -e 1520 -c 2 -a 0 -i 300 -k IFQ
d -t 0.180625000 -s 0 -d 1 -p cbr -e 1520 -c 2 -a 0 -i 301 -k IFQ
d -t 0.181225000 -s 0 -d 1 -p cbr -e 1520 -c 2 -a 0 -i 302 -k IFQ
d -t 0.181825000 -s 0 -d 1 -p cbr -e 1520 -c 2 -a 0 -i 303 -k IFQ
d -t 0.182425000 -s 0 -d 1 -p cbr -e 1520 -c 2 -a 0 -i 304 -k IFQ
d -t 0.183025000 -s 0 -d 1 -p cbr -e 1520 -c 2 -a 0 -i 305 -k IFQ
d -t 0.183625000 -s 0 -d 1 -p cbr -e 1520 -c 2 -a 0 -i 306 -k IFQ
d -t 0.184225000 -s 0 -d 1 -p cbr -e 1520 -c 2 -a 0 -i 307 -k IFQ
d -t 0.184825000 -s 0 -d 1 -p cbr -e 1520 -c 2 -a 0 -i 308 -k IFQ
d -t 0.185425000 -s 0 -d 1 -p cbr -e 1520 -c 2 -a 0 -i 309 -k IFQ
d -t 0.186025000 -s 0 -d 1 -p cbr -e 1520 -c 2 -a 0 -i 310 -k IFQ
d -t 0.186625000 -s 0 -d 1 -p cbr -e 1520 -c 2 -a 0 -i 311 -k IFQ
d -t 0.187225000 -s 0 -d 1 -p cbr -e 1520 -c 2 -a 0 -i 312 -k IFQ
d -t 0.187825000 -s 0 -d 1 -p cbr -e 1520 -c 2 -a 0 -i 313 -k IFQ
d -t 0.188425000 -s 0 -d 1 -p cbr -e 1520 -c 2 -a 0 -i 314 -k IFQ
d -t 0.189025000 -s 0 -d 1 -p cbr -e 1520 -c 2 -a 0 -i 315 -k IFQ
d -t 0.189625000 -s 0 -d 1 -p cbr -e 1520 -c 2 -a 0 -i 316 -k IFQ
d -t 0.190225000 -s 0 -d 1 -p cbr -e 1520 -c 2 -a 0 -i 317 -k IFQ
r -t 0.190701500 -s 1 -d 1 -p cbr -e 1520 -c 2 -a 0 -i 21 -k MAC
+ -t 0.190711500 -s 1 -d -1 -p ACK -e 38 -c 2 -a 0 -i 0 -k MAC 
- -t 0.190711500 -s 1 -d -1 -p ACK -e 38 -c 2 -a 0 -i 0 -k MAC
h -t 0.190711500 -s 1 -d -1 -p ACK -e 38 -c 2 -a 0 -i 0 -k MAC
d -t 0.190825000 -s 0 -d 1 -p cbr -e 1520 -c 2 -a 0 -i 318 -k IFQ
r -t 0.191016000 -s 0 -d -1 -p ACK -e 38 -c 2 -a 0 -i 0 -k MAC
+ -t 0.191266000 -s 0 -d 1 -p cbr -e 1578 -c 2 -a 0 -i 22 -k MAC 
- -t 0.191266000 -s 0 -d 1 -p cbr -e 1578 -c 2 -a 0 -i 22 -k MAC
h -t 0.191266000 -s 0 -d 1 -p cbr -e 1578 -c 2 -a 0 -i 22 -k MAC
d -t 0.192025000 -s 0 -d 1 -p cbr -e 1520 -c 2 -a 0 -i 320 -k IFQ
d -t 0.192625000 -s 0 -d 1 -p cbr -e 1520 -c 2 -a 0 -i 321 -k IFQ
d -t 0.193225000 -s 0 -d 1 -p cbr -e 1520 -c 2 -a 0 -i 322 -k IFQ
d -t 0.193825000 -s 0 -d 1 -p cbr -e 1520 -c 2 -a 0 -i 323 -k IFQ
d -t 0.194425000 -s 0 -d 1 -p cbr -e 1520 -c 2 -a 0 -i 324 -k IFQ
d -t 0.195025000 -s 0 -d 1 -p cbr -e 1520 -c 2 -a 0 -i 325 -k IFQ
d -t 0.195625000 -s 0 -d 1 -p cbr -e 1520 -c 2 -a 0 -i 326 -k IFQ
d -t 0.196225000 -s 0 -d 1 -p cbr -e 1520 -c 2 -a 0 -i 327 -k IFQ
d -t 0.196825000 -s 0 -d 1 -p cbr -e 1520 -c 2 -a 0 -i 328 -k IFQ
d -t 0.197425000 -s 0 -d 1 -p cbr -e 1520 -c 2 -a 0 -i 329 -k IFQ
d -t 0.198025000 -s 0 -d 1 -p cbr -e 1520 -c 2 -a 0 -i 330 -k IFQ
d -t 0.198625000 -s 0 -d 1 -p cbr -e 1520 -c 2 -a 0 -i 331 -k IFQ
d -t 0.199225000 -s 0 -d 1 -p cbr -e 1520 -c 2 -a 0 -i 332 -k IFQ
d -t 0.199825000 -s 0 -d 1 -p cbr -e 1520 -c 2 -a 0 -i 333 -k IFQ
d -t 0.200425000 -s 0 -d 1 -p cbr -e 1520 -c 2 -a 0 -i 334 -k IFQ
d -t 0.201025000 -s 0 -d 1 -p cbr -e 1520 -c 2 -a 0 -i 335 -k IFQ
d -t 0.201625000 -s 0 -d 1 -p cbr -e 1520 -c 2 -a 0 -i 336 -k IFQ
d -t 0.202225000 -s 0 -d 1 -p cbr -e 1520 -c 2 -a 0 -i 337 -k IFQ
d -t 0.202825000 -s 0 -d 1 -p cbr -e 1520 -c 2 -a 0 -i 338 -k IFQ
d -t 0.203425000 -s 0 -d 1 -p cbr -e 1520 -c 2 -a 0 -i 339 -k IFQ
r -t 0.203890500 -s 1 -d 1 -p cbr -e 1520 -c 2 -a 0 -i 22 -k MAC
+ -t 0.203900500 -s 1 -d -1 -p ACK -e 38 -c 2 -a 0 -i 0 -k MAC 
- -t 0.203900500 -s 1 -d -1 -p ACK -e 38 -c 2 -a 0 -i 0 -k MAC
h -t 0.203900500 -s 1 -d -1 -p ACK -e 38 -c 2 -a 0 -i 0 -k MAC
d -t 0.204025000 -s 0 -d 1 -p cbr -e 1520 -c 2 -a 0 -i 340 -k IFQ
r -t 0.204205000 -s 0 -d -1 -p ACK -e 38 -c 2 -a 0 -i 0 -k MAC
+ -t 0.204475000 -s 0 -d 1 -p cbr -e 1578 -c 2 -a 0 -i 23 -k MAC 
- -t 0.204475000 -s 0 -d 1 -p cbr -e 1578 -c 2 -a 0 -i 23 -k MAC
h -t 0.204475000 -s 0 -d 1 -p cbr -e 1578 -c 2 -a 0 -i 23 -k MAC
d -t 0.205225000 -s 0 -d 1 -p cbr -e 1520 -c 2 -a 0 -i 342 -k IFQ
d -t 0.205825000 -s 0 -d 1 -p cbr -e 1520 -c 2 -a 0 -i 343 -k IFQ