s 0.000535000 _0_ MAC  --- 0 AODV 106 [0 ffffffff 0 800] ------- [0:255 -1:255 30 0] [0x2 1 1 [1 0] [0 4]] (REQUEST)
r 0.001383500 _1_ MAC  --- 0 AODV 48 [0 ffffffff 0 800] ------- [0:255 -1:255 30 0] [0x2 1 1 [1 0] [0 4]] (REQUEST)
s 0.002023500 _1_ MAC  --- 0 ARP 86 [0 ffffffff 1 806] ------- [REQUEST 1/1 0/0]
r 0.002712000 _0_ MAC  --- 0 ARP 28 [0 ffffffff 1 806] ------- [REQUEST 1/1 0/0]
s 0.003087000 _0_ MAC  --- 0 ARP 86 [13a 1 0 806] ------- [REPLY 0/0 1/1]
r 0.003775500 _1_ MAC  --- 0 ARP 28 [13a 1 0 806] ------- [REPLY 0/0 1/1]
s 0.003785500 _1_ MAC  --- 0 ACK 38 [0 0 0 0] 
r 0.004090000 _0_ MAC  --- 0 ACK 38 [0 0 0 0] 
s 0.004139500 _1_ MAC  --- 0 AODV 102 [13a 0 1 800] ------- [1:255 0:255 30 0] [0x4 1 [1 4] 10.000000] (REPLY)
r 0.004956000 _0_ MAC  --- 0 AODV 44 [13a 0 1 800] ------- [1:255 0:255 30 0] [0x4 1 [1 4] 10.000000] (REPLY)
s 0.004966000 _0_ MAC  --- 0 ACK 38 [0 1 0 0] 
r 0.005270500 _1_ MAC  --- 0 ACK 38 [0 1 0 0] 
s 0.005480000 _0_ MAC  --- 0 cbr 1578 [13a 1 0 800] ------- [0:0 1:0 30 1] [0] 0 0
D 0.016225000 _0_ IFQ  --- 27 cbr 1520 [0 1 0 800] ------- [0:0 1:0 30 1] [27] 0 0
D 0.016825000 _0_ IFQ  --- 28 cbr 1520 [0 1 0 800] ------- [0:0 1:0 30 1] [28] 0 0
D 0.017425000 _0_ IFQ  --- 29 cbr 1520 [0 1 0 800] ------- [0:0 1:0 30 1] [29] 0 0
D 0.018025000 _0_ IFQ  --- 30 cbr 1520 [0 1 0 800] ------- [0:0 1:0 30 1] [30] 0 0
r 0.018104500 _1_ MAC  --- 0 cbr 1520 [13a 1 0 800] ------- [0:0 1:0 30 1] [0] 1 0
s 0.018114500 _1_ MAC  --- 0 ACK 38 [0 0 0 0] 
r 0.018419000 _0_ MAC  --- 0 ACK 38 [0 0 0 0] 
s 0.018709000 _0_ MAC  --- 9 cbr 1578 [13a 1 0 800] ------- [0:0 1:0 30 1] [9] 0 0
D 0.019225000 _0_ IFQ  --- 32 cbr 1520 [0 1 0 800] ------- [0:0 1:0 30 1] [32] 0 0
D 0.019825000 _0_ IFQ  --- 33 cbr 1520 [0 1 0 800] ------- [0:0 1:0 30 1] [33] 0 0
D 0.020425000 _0_ IFQ  --- 34 cbr 1520 [0 1 0 800] ------- [0:0 1:0 30 1] [34] 0 0
D 0.021025000 _0_ IFQ  --- 35 cbr 1520 [0 1 0 800] ------- [0:0 1:0 30 1] [35] 0 0
D 0.021625000 _0_ IFQ  --- 36 cbr 1520 [0 1 0 800] ------- [0:0 1:0 30 1] [36] 0 0
D 0.022225000 _0_ IFQ  --- 37 cbr 1520 [0 1 0 800] ------- [0:0 1:0 30 1] [37] 0 0
D 0.022825000 _0_ IFQ  --- 38 cbr 1520 [0 1 0 800] ------- [0:0 1:0 30 1] [38] 0 0
D 0.023425000 _0_ IFQ  --- 39 cbr 1520 [0 1 0 800] ------- [0:0 1:0 30 1] [39] 0 0
D 0.024025000 _0_ IFQ  --- 40 cbr 1520 [0 1 0 800] ------- [0:0 1:0 30 1] [40] 0 0
D 0.024625000 _0_ IFQ  --- 41 cbr 1520 [0 1 0 800] ------- [0:0 1:0 30 1] [41] 0 0
D 0.025006000 _0_ IFQ  --- 2 cbr 1520 [0 1 0 800] ------- [0:0 1:0 30 1] [2] 0 0
D 0.025225000 _0_ IFQ  --- 42 cbr 1520 [0 1 0 800] ------- [0:0 1:0 30 1] [42] 0 0
D 0.025825000 _0_ IFQ  --- 43 cbr 1520 [0 1 0 800] ------- [0:0 1:0 30 1] [43] 0 0
D 0.026425000 _0_ IFQ  --- 44 cbr 1520 [0 1 0 800] ------- [0:0 1:0 30 1] [44] 0 0
D 0.027025000 _0_ IFQ  --- 45 cbr 1520 [0 1 0 800] ------- [0:0 1:0 30 1] [45] 0 0
D 0.027625000 _0_ IFQ  --- 46 cbr 1520 [0 1 0 800] ------- [0:0 1:0 30 1] [46] 0 0
D 0.028225000 _0_ IFQ  --- 47 cbr 1520 [0 1 0 800] ------- [0:0 1:0 30 1] [47] 0 0
D 0.028825000 _0_ IFQ  --- 48 cbr 1520 [0 1 0 800] ------- [0:0 1:0 30 1] [48] 0 0
D 0.029425000 _0_ IFQ  --- 49 cbr 1520 [0 1 0 800] ------- [0:0 1:0 30 1] [49] 0 0
D 0.030025000 _0_ IFQ  --- 50 cbr 1520 [0 1 0 800] ------- [0:0 1:0 30 1] [50] 0 0
D 0.030625000 _0_ IFQ  --- 51 cbr 1520 [0 1 0 800] ------- [0:0 1:0 30 1] [51] 0 0
D 0.031225000 _0_ IFQ  --- 52 cbr 1520 [0 1 0 800] ------- [0:0 1:0 30 1] [52] 0 0
r 0.031333500 _1_ MAC  --- 9 cbr 1520 [13a 1 0 800] ------- [0:0 1:0 30 1] [9] 1 0
s 0.031343500 _1_ MAC  --- 0 ACK 38 [0 0 0 0] 
r 0.031648000 _0_ MAC  --- 0 ACK 38 [0 0 0 0] 
s 0.032058000 _0_ MAC  --- 10 cbr 1578 [13a 1 0 800] ------- [0:0 1:0 30 1] [10] 0 0
D 0.032425000 _0_ IFQ  --- 54 cbr 1520 [0 1 0 800] ------- [0:0 1:0 30 1] [54] 0 0
D 0.033025000 _0_ IFQ  --- 55 cbr 1520 [0 1 0 800] ------- [0:0 1:0 30 1] [55] 0 0
D 0.033625000 _0_ IFQ  --- 56 cbr 1520 [0 1 0 800] ------- [0:0 1:0 30 1] [56] 0 0
D 0.034225000 _0_ IFQ  --- 57 cbr 1520 [0 1 0 800] ------- [0:0 1:0 30 1] [57] 0 0
D 0.034825000 _0_ IFQ  --- 58 cbr 1520 [0 1 0 800] ------- [0:0 1:0 30 1] [58] 0 0
D 0.035006000 _0_ IFQ  --- 3 cbr 1520 [0 1 0 800] ------- [0:0 1:0 30 1] [3] 0 0
D 0.035425000 _0_ IFQ  --- 59 cbr 1520 [0 1 0 800] ------- [0:0 1:0 30 1] [59] 0 0
D 0.036025000 _0_ IFQ  --- 60 cbr 1520 [0 1 0 800] ------- [0:0 1:0 30 1] [60] 0 0
D 0.036625000 _0_ IFQ  --- 61 cbr 1520 [0 1 0 800] ------- [0:0 1:0 30 1] [61] 0 0
D 0.037225000 _0_ IFQ  --- 62 cbr 1520 [0 1 0 800] ------- [0:0 1:0 30 1] [62] 0 0
D 0.037825000 _0_ IFQ  --- 63 cbr 1520 [0 1 0 800] ------- [0:0 1:0 30 1] [63] 0 0
D 0.038425000 _0_ IFQ  --- 64 cbr 1520 [0 1 0 800] ------- [0:0 1:0 30 1] [64] 0 0
D 0.039025000 _0_ IFQ  --- 65 cbr 1520 [0 1 0 800] ------- [0:0 1:0 30 1] [65] 0 0
D 0.039625000 _0_ IFQ  --- 66 cbr 1520 [0 1 0 800] ------- [0:0 1:0 30 1] [66] 0 0
D 0.040225000 _0_ IFQ  --- 67 cbr 1520 [0 1 0 800] ------- [0:0 1:0 30 1] [67] 0 0
D 0.040825000 _0_ IFQ  --- 68 cbr 1520 [0 1 0 800] ------- [0:0 1:0 30 1] [68] 0 0
D 0.041425000 _0_ IFQ  --- 69 cbr 1520 [0 1 0 800] ------- [0:0 1:0 30 1] [69] 0 0
D 0.042025000 _0_ IFQ  --- 70 cbr 1520 [0 1 0 800] ------- [0:0 1:0 30 1] [70] 0 0
D 0.042625000 _0_ IFQ  --- 71 cbr 1520 [0 1 0 800] ------- [0:0 1:0 30 1] [71] 0 0
D 0.043225000 _0_ IFQ  --- 72 cbr 1520 [0 1 0 800] ------- [0:0 1:0 30 1] [72] 0 0
D 0.043825000 _0_ IFQ  --- 73 cbr 1520 [0 1 0 800] ------- [0:0 1:0 30 1] [73] 0 0
D 0.044425000 _0_ IFQ  --- 74 cbr 1520 [0 1 0 800] ------- [0:0 1:0 30 1] [74] 0 0
r 0.044682500 _1_ MAC  --- 10 cbr 1520 [13a 1 0 800] ------- [0:0 1:0 30 1] [10] 1 0
s 0.044692500 _1_ MAC  --- 0 ACK 38 [0 0 0 0] 
r 0.044997000 _0_ MAC  --- 0 ACK 38 [0 0 0 0] 
D 0.045025000 _0_ IFQ  --- 75 cbr 1520 [0 1 0 800] ------- [0:0 1:0 30 1] [75] 0 0
s 0.045307000 _0_ MAC  --- 11 cbr 1578 [13a 1 0 800] ------- [0:0 1:0 30 1] [11] 0 0
D 0.045625000 _0_ IFQ  --- 76 cbr 1520 [0 1 0 800] ------- [0:0 1:0 30 1] [76] 0 0
D 0.046225000 _0_ IFQ  --- 77 cbr 1520 [0 1 0 800] ------- [0:0 1:0 30 1] [77] 0 0
D 0.046825000 _0_ IFQ  --- 78 cbr 1520 [0 1 0 800] ------- [0:0 1:0 30 1] [78] 0 0
D 0.047425000 _0_ IFQ  --- 79 cbr 1520 [0 1 0 800] ------- [0:0 1:0 30 1] [79] 0 0
D 0.048025000 _0_ IFQ  --- 80 cbr 1520 [0 1 0 800] ------- [0:0 1:0 30 1] [80] 0 0
D 0.048625000 _0_ IFQ  --- 81 cbr 1520 [0 1 0 800] ------- [0:0 1:0 30 1] [81] 0 0
D 0.049225000 _0_ IFQ  --- 82 cbr 1520 [0 1 0 800] ------- [0:0 1:0 30 1] [82] 0 0
D 0.049825000 _0_ IFQ  --- 83 cbr 1520 [0 1 0 800] ------- [0:0 1:0 30 1] [83] 0 0
D 0.050425000 _0_ IFQ  --- 84 cbr 1520 [0 1 0 800] ------- [0:0 1:0 30 1] [84] 0 0
D 0.051025000 _0_ IFQ  --- 85 cbr 1520 [0 1 0 800] ------- [0:0 1:0 30 1] [85] 0 0
D 0.051625000 _0_ IFQ  --- 86 cbr 1520 [0 1 0 800] ------- [0:0 1:0 30 1] [86] 0 0
D 0.052225000 _0_ IFQ  --- 87 cbr 1520 [0 1 0 800] ------- [0:0 1:0 30 1] [87] 0 0
D 0.052825000 _0_ IFQ  --- 88 cbr 1520 [0 1 0 800] ------- [0:0 1:0 30 1] [88] 0 0
D 0.053425000 _0_ IFQ  --- 89 cbr 1520 [0 1 0 800] ------- [0:0 1:0 30 1] [89] 0 0
D 0.054025000 _0_ IFQ  --- 90 cbr 1520 [0 1 0 800] ------- [0:0 1:0 30 1] [90] 0 0
D 0.054625000 _0_ IFQ  --- 91 cbr 1520 [0 1 0 800] ------- [0:0 1:0 30 1] [91] 0 0
D 0.055006000 _0_ IFQ  --- 5 cbr 1520 [0 1 0 800] ------- [0:0 1:0 30 1] [5] 0 0
D 0.055225000 _0_ IFQ  --- 92 cbr 1520 [0 1 0 800] ------- [0:0 1:0 30 1] [92] 0 0
D 0.055825000 _0_ IFQ  --- 93 cbr 1520 [0 1 0 800] ------- [0:0 1:0 30 1] [93] 0 0
D 0.056425000 _0_ IFQ  --- 94 cbr 1520 [0 1 0 800] ------- [0:0 1:0 30 1] [94] 0 0
D 0.057025000 _0_ IFQ  --- 95 cbr 1520 [0 1 0 800] ------- [0:0 1:0 30 1] [95] 0 0
D 0.057625000 _0_ IFQ  --- 96 cbr 1520 [0 1 0 800] ------- [0:0 1:0 30 1] [96] 0 0
r 0.057931500 _1_ MAC  --- 11 cbr 1520 [13a 1 0 800] ------- [0:0 1:0 30 1] [11] 1 0
s 0.057941500 _1_ MAC  --- 0 ACK 38 [0 0 0 0] 
D 0.058225000 _0_ IFQ  --- 97 cbr 1520 [0 1 0 800] ------- [0:0 1:0 30 1] [97] 0 0
r 0.058246000 _0_ MAC  --- 0 ACK 38 [0 0 0 0] 
s 0.058536000 _0_ MAC  --- 12 cbr 1578 [13a 1 0 800] ------- [0:0 1:0 30 1] [12] 0 0
D 0.059425000 _0_ IFQ  --- 99 cbr 1520 [0 1 0 800] ------- [0:0 1:0 30 1] [99] 0 0
D 0.060025000 _0_ IFQ  --- 100 cbr 1520 [0 1 0 800] ------- [0:0 1:0 30 1] [100] 0 0
D 0.060625000 _0_ IFQ  --- 101 cbr 1520 [0 1 0 800] ------- [0:0 1:0 30 1] [101] 0 0
D 0.061225000 _0_ IFQ  --- 102 cbr 1520 [0 1 0 800] ------- [0:0 1:0 30 1] [102] 0 0
D 0.061825000 _0_ IFQ  --- 103 cbr 1520 [0 1 0 800] ------- [0:0 1:0 30 1] [103] 0 0
D 0.062425000 _0_ IFQ  --- 104 cbr 1520 [0 1 0 800] ------- [0:0 1:0 30 1] [104] 0 0
D 0.063025000 _0_ IFQ  --- 105 cbr 1520 [0 1 0 800] ------- [0:0 1:0 30 1] [105] 0 0
D 0.063625000 _0_ IFQ  --- 106 cbr 1520 [0 1 0 800] ------- [0:0 1:0 30 1] [106] 0 0
D 0.064225000 _0_ IFQ  --- 107 cbr 1520 [0 1 0 800] ------- [0:0 1:0 30 1] [107] 0 0
D 0.064825000 _0_ IFQ  --- 108 cbr 1520 [0 1 0 800] ------- [0:0 1:0 30 1] [108] 0 0
D 0.065006000 _0_ IFQ  --- 6 cbr 1520 [0 1 0 800] ------- [0:0 1:0 30 1] [6] 0 0
D 0.065425000 _0_ IFQ  --- 109 cbr 1520 [0 1 0 800] ------- [0:0 1:0 30 1] [109] 0 0
D 0.066025000 _0_ IFQ  --- 110 cbr 1520 [0 1 0 800] ------- [0:0 1:0 30 1] [110] 0 0
D 0.066625000 _0_ IFQ  --- 111 cbr 1520 [0 1 0 800] ------- [0:0 1:0 30 1] [111] 0 0
D 0.067225000 _0_ IFQ  --- 112 cbr 1520 [0 1 0 800] ------- [0:0 1:0 30 1] [112] 0 0
D 0.067825000 _0_ IFQ  --- 113 cbr 1520 [0 1 0 800] ------- [0:0 1:0 30 1] [113] 0 0
D 0.068425000 _0_ IFQ  --- 114 cbr 1520 [0 1 0 800] ------- [0:0 1:0 30 1] [114] 0 0
D 0.069025000 _0_ IFQ  --- 115 cbr 1520 [0 1 0 800] ------- [0:0 1:0 30 1] [115] 0 0
D 0.069625000 _0_ IFQ  --- 116 cbr 1520 [0 1 0 800] ------- [0:0 1:0 30 1] [116] 0 0
D 0.070225000 _0_ IFQ  --- 117 cbr 1520 [0 1 0 800] ------- [0:0 1:0 30 1] [117] 0 0
D 0.070825000 _0_ IFQ  --- 118 cbr 1520 [0 1 0 800] ------- [0:0 1:0 30 1] [118] 0 0
r 0.071160500 _1_ MAC  --- 12 cbr 1520 [13a 1 0 800] ------- [0:0 1:0 30 1] [12] 1 0
s 0.071170500 _1_ MAC  --- 0 ACK 38 [0 0 0 0] 
D 0.071425000 _0_ IFQ  --- 119 cbr 1520 [0 1 0 800] ------- [0:0 1:0 30 1] [119] 0 0
r 0.071475000 _0_ MAC  --- 0 ACK 38 [0 0 0 0] 
s 0.071565000 _0_ MAC  --- 13 cbr 1578 [13a 1 0 800] ------- [0:0 1:0 30 1] [13] 0 0
D 0.072625000 _0_ IFQ  --- 121 cbr 1520 [0 1 0 800] ------- [0:0 1:0 30 1] [121] 0 0
D 0.073225000 _0_ IFQ  --- 122 cbr 1520 [0 1 0 800] ------- [0:0 1:0 30 1] [122] 0 0
D 0.073825000 _0_ IFQ  --- 123 cbr 1520 [0 1 0 800] ------- [0:0 1:0 30 1] [123] 0 0
D 0.074425000 _0_ IFQ  --- 124 cbr 1520 [0 1 0 800] ------- [0:0 1:0 30 1] [124] 0 0
D 0.075006000 _0_ IFQ  --- 7 cbr 1520 [0 1 0 800] ------- [0:0 1:0 30 1] [7] 0 0
D 0.075025000 _0_ IFQ  --- 125 cbr 1520 [0 1 0 800] ------- [0:0 1:0 30 1] [125] 0 0
D 0.075625000 _0_ IFQ  --- 126 cbr 1520 [0 1 0 800] ------- [0:0 1:0 30 1] [126] 0 0
D 0.076225000 _0_ IFQ  --- 127 cbr 1520 [0 1 0 800] ------- [0:0 1:0 30 1] [127] 0 0
D 0.076825000 _0_ IFQ  --- 128 cbr 1520 [0 1 0 800] ------- [0:0 1:0 30 1] [128] 0 0
D 0.077425000 _0_ IFQ  --- 129 cbr 1520 [0 1 0 800] ------- [0:0 1:0 30 1] [129] 0 0
D 0.078025000 _0_ IFQ  --- 130 cbr 1520 [0 1 0 800] ------- [0:0 1:0 30 1] [130] 0 0
D 0.078625000 _0_ IFQ  --- 131 cbr 1520 [0 1 0 800] ------- [0:0 1:0 30 1] [131] 0 0
D 0.079225000 _0_ IFQ  --- 132 cbr 1520 [0 1 0 800] ------- [0:0 1:0 30 1] [132] 0 0
D 0.079825000 _0_ IFQ  --- 133 cbr 1520 [0 1 0 800] ------- [0:0 1:0 30 1] [133] 0 0
D 0.080425000 _0_ IFQ  --- 134 cbr 1520 [0 1 0 800] ------- [0:0 1:0 30 1] [134] 0 0
D 0.081025000 _0_ IFQ  --- 135 cbr 1520 [0 1 0 800] ------- [0:0 1:0 30 1] [135] 0 0
D 0.081625000 _0_ IFQ  --- 136 cbr 1520 [0 1 0 800] ------- [0:0 1:0 30 1] [136] 0 0
D 0.082225000 _0_ IFQ  --- 137 cbr 1520 [0 1 0 800] ------- [0:0 1:0 30 1] [137] 0 0
D 0.082825000 _0_ IFQ  --- 138 cbr 1520 [0 1 0 800] ------- [0:0 1:0 30 1] [138] 0 0
D 0.083425000 _0_ IFQ  --- 139 cbr 1520 [0 1 0 800] ------- [0:0 1:0 30 1] [139] 0 0
D 0.084025000 _0_ IFQ  --- 140 cbr 1520 [0 1 0 800] ------- [0:0 1:0 30 1] [140] 0 0
r 0.084189500 _1_ MAC  --- 13 cbr 1520 [13a 1 0 800] ------- [0:0 1:0 30 1] [13] 1 0
s 0.084199500 _1_ MAC  --- 0 ACK 38 [0 0 0 0] 
r 0.084504000 _0_ MAC  --- 0 ACK 38 [0 0 0 0] 
D 0.085006000 _0_ IFQ  --- 8 cbr 1520 [0 1 0 800] ------- [0:0 1:0 30 1] [8] 0 0
s 0.085094000 _0_ MAC  --- 14 cbr 1578 [13a 1 0 800] ------- [0:0 1:0 30 1] [14] 0 0
D 0.085225000 _0_ IFQ  --- 142 cbr 1520 [0 1 0 800] ------- [0:0 1:0 30 1] [142] 0 0
D 0.085825000 _0_ IFQ  --- 143 cbr 1520 [0 1 0 800] ------- [0:0 1:0 30 1] [143] 0 0
D 0.086425000 _0_ IFQ  --- 144 cbr 1520 [0 1 0 800] ------- [0:0 1:0 30 1] [144] 0 0
D 0.087025000 _0_ IFQ  --- 145 cbr 1520 [0 1 0 800] ------- [0:0 1:0 30 1] [145] 0 0
D 0.087625000 _0_ IFQ  --- 146 cbr 1520 [0 1 0 800] ------- [0:0 1:0 30 1] [146] 0 0
D 0.088225000 _0_ IFQ  --- 147 cbr 1520 [0 1 0 800] ------- [0:0 1:0 30 1] [147] 0 0
D 0.088825000 _0_ IFQ  --- 148 cbr 1520 [0 1 0 800] ------- [0:0 1:0 30 1] [148] 0 0
D 0.089425000 _0_ IFQ  --- 149 cbr 1520 [0 1 0 800] ------- [0:0 1:0 30 1] [149] 0 0
D 0.090025000 _0_ IFQ  --- 150 cbr 1520 [0 1 0 800] ------- [0:0 1:0 30 1] [150] 0 0
D 0.090625000 _0_ IFQ  --- 151 cbr 1520 [0 1 0 800] ------- [0:0 1:0 30 1] [151] 0 0
D 0.091225000 _0_ IFQ  --- 152 cbr 1520 [0 1 0 800] ------- [0:0 1:0 30 1] [152] 0 0
D 0.091825000 _0_ IFQ  --- 153 cbr 1520 [0 1 0 800] ------- [0:0 1:0 30 1] [153] 0 0
D 0.092425000 _0_ IFQ  --- 154 cbr 1520 [0 1 0 800] ------- [0:0 1:0 30 1] [154] 0 0
D 0.093025000 _0_ IFQ  --- 155 cbr 1520 [0 1 0 800] ------- [0:0 1:0 30 1] [155] 0 0
D 0.093625000 _0_ IFQ  --- 156 cbr 1520 [0 1 0 800] ------- [0:0 1:0 30 1] [156] 0 0
D 0.094225000 _0_ IFQ  --- 157 cbr 1520 [0 1 0 800] ------- [0:0 1:0 30 1] [157] 0 0
D 0.094825000 _0_ IFQ  --- 158 cbr 1520 [0 1 0 800] ------- [0:0 1:0 30 1] [158] 0 0
D 0.095425000 _0_ IFQ  --- 159 cbr 1520 [0 1 0 800] ------- [0:0 1:0 30 1] [159] 0 0
D 0.096025000 _0_ IFQ  --- 160 cbr 1520 [0 1 0 800] ------- [0:0 1:0 30 1] [160] 0 0
D 0.096625000 _0_ IFQ  --- 161 cbr 1520 [0 1 0 800] ------- [0:0 1:0 30 1] [161] 0 0
D 0.097225000 _0_ IFQ  --- 162 cbr 1520 [0 1 0 800] ------- [0:0 1:0 30 1] [162] 0 0
r 0.097718500 _1_ MAC  --- 14 cbr 1520 [13a 1 0 800] ------- [0:0 1:0 30 1] [14] 1 0
s 0.097728500 _1_ MAC  --- 0 ACK 38 [0 0 0 0] 
D 0.097825000 _0_ IFQ  --- 163 cbr 1520 [0 1 0 800] ------- [0:0 1:0 30 1] [163] 0 0
r 0.098033000 _0_ MAC  --- 0 ACK 38 [0 0 0 0] 
s 0.098243000 _0_ MAC  --- 15 cbr 1578 [13a 1 0 800] ------- [0:0 1:0 30 1] [15] 0 0
D 0.099025000 _0_ IFQ  --- 165 cbr 1520 [0 1 0 800] ------- [0:0 1:0 30 1] [165] 0 0
D 0.099625000 _0_ IFQ  --- 166 cbr 1520 [0 1 0 800] ------- [0:0 1:0 30 1] [166] 0 0
D 0.100225000 _0_ IFQ  --- 167 cbr 1520 [0 1 0 800] ------- [0:0 1:0 30 1] [167] 0 0
D 0.100825000 _0_ IFQ  --- 168 cbr 1520 [0 1 0 800] ------- [0:0 1:0 30 1] [168] 0 0
D 0.101425000 _0_ IFQ  --- 169 cbr 1520 [0 1 0 800] ------- [0:0 1:0 30 1] [169] 0 0
D 0.102025000 _0_ IFQ  --- 170 cbr 1520 [0 1 0 800] ------- [0:0 1:0 30 1] [170] 0 0
D 0.102625000 _0_ IFQ  --- 171 cbr 1520 [0 1 0 800] ------- [0:0 1:0 30 1] [171] 0 0
D 0.103225000 _0_ IFQ  --- 172 cbr 1520 [0 1 0 800] ------- [0:0 1:0 30 1] [172] 0 0
D 0.103825000 _0_ IFQ  --- 173 cbr 1520 [0 1 0 800] ------- [0:0 1:0 30 1] [173] 0 0
D 0.104425000 _0_ IFQ  --- 174 cbr 1520 [0 1 0 800] ------- [0:0 1:0 30 1] [174] 0 0
D 0.105025000 _0_ IFQ  --- 175 cbr 1520 [0 1 0 800] ------- [0:0 1:0 30 1] [175] 0 0
D 0.105625000 _0_ IFQ  --- 176 cbr 1520 [0 1 0 800] ------- [0:0 1:0 30 1] [176] 0 0
D 0.106225000 _0_ IFQ  --- 177 cbr 1520 [0 1 0 800] ------- [0:0 1:0 30 1] [177] 0 0
D 0.106825000 _0_ IFQ  --- 178 cbr 1520 [0 1 0 800] ------- [0:0 1:0 30 1] [178] 0 0
D 0.107425000 _0_ IFQ  --- 179 cbr 1520 [0 1 0 800] ------- [0:0 1:0 30 1] [179] 0 0
D 0.108025000 _0_ IFQ  --- 180 cbr 1520 [0 1 0 800] ------- [0:0 1:0 30 1] [180] 0 0
D 0.108625000 _0_ IFQ  --- 181 cbr 1520 [0 1 0 800] ------- [0:0 1:0 30 1] [181] 0 0
D 0.109225000 _0_ IFQ  --- 182 cbr 1520 [0 1 0 800] ------- [0:0 1:0 30 1] [182] 0 0
D 0.109825000 _0_ IFQ  --- 183 cbr 1520 [0 1 0 800] ------- [0:0 1:0 30 1] [183] 0 0
D 0.110425000 _0_ IFQ  --- 184 cbr 1520 [0 1 0 800] ------- [0:0 1:0 30 1] [184] 0 0
r 0.110867500 _1_ MAC  --- 15 cbr 1520 [13a 1 0 800] ------- [0:0 1:0 30 1] [15] 1 0
s 0.110877500 _1_ MAC  --- 0 ACK 38 [0 0 0 0] 
D 0.111025000 _0_ IFQ  --- 185 cbr 1520 [0 1 0 800] ------- [0:0 1:0 30 1] [185] 0 0
r 0.111182000 _0_ MAC  --- 0 ACK 38 [0 0 0 0] 
s 0.111592000 _0_ MAC  --- 16 cbr 1578 [13a 1 0 800] ------- [0:0 1:0 30 1] [16] 0 0
D 0.112225000 _0_ IFQ  --- 187 cbr 1520 [0 1 0 800] ------- [0:0 1:0 30 1] [187] 0 0
D 0.112825000 _0_ IFQ  --- 188 cbr 1520 [0 1 0 800] ------- [0:0 1:0 30 1] [188] 0 0
D 0.113425000 _0_ IFQ  --- 189 cbr 1520 [0 1 0 800] ------- [0:0 1:0 30 1] [189] 0 0
D 0.114025000 _0_ IFQ  --- 190 cbr 1520 [0 1 0 800] ------- [0:0 1:0 30 1] [190] 0 0
D 0.114625000 _0_ IFQ  --- 191 cbr 1520 [0 1 0 800] ------- [0:0 1:0 30 1] [191] 0 0
D 0.115225000 _0_ IFQ  --- 192 cbr 1520 [0 1 0 800] ------- [0:0 1:0 30 1] [192] 0 0
D 0.115825000 _0_ IFQ  --- 193 cbr 1520 [0 1 0 800] ------- [0:0 1:0 30 1] [193] 0 0
D 0.116425000 _0_ IFQ  --- 194 cbr 1520 [0 1 0 800] ------- [0:0 1:0 30 1] [194] 0 0
D 0.117025000 _0_ IFQ  --- 195 cbr 1520 [0 1 0 800] ------- [0:0 1:0 30 1] [195] 0 0
D 0.117625000 _0_ IFQ  --- 196 cbr 1520 [0 1 0 800] ------- [0:0 1:0 30 1] [196] 0 0
D 0.118225000 _0_ IFQ  --- 197 cbr 1520 [0 1 0 800] ------- [0:0 1:0 30 1] [197] 0 0
D 0.118825000 _0_ IFQ  --- 198 cbr 1520 [0 1 0 800] ------- [0:0 1:0 30 1] [198] 0 0
D 0.119425000 _0_ IFQ  --- 199 cbr 1520 [0 1 0 800] ------- [0:0 1:0 30 1] [199] 0 0
D 0.120025000 _0_ IFQ  --- 200 cbr 1520 [0 1 0 800] ------- [0:0 1:0 30 1] [200] 0 0
D 0.120625000 _0_ IFQ  --- 201 cbr 1520 [0 1 0 800] ------- [0:0 1:0 30 1] [201] 0 0
D 0.121225000 _0_ IFQ  --- 202 cbr 1520 [0 1 0 800] ------- [0:0 1:0 30 1] [202] 0 0
D 0.121825000 _0_ IFQ  --- 203 cbr 1520 [0 1 0 800] ------- [0:0 1:0 30 1] [203] 0 0
D 0.122425000 _0_ IFQ  --- 204 cbr 1520 [0 1 0 800] ------- [0:0 1:0 30 1] [204] 0 0
D 0.123025000 _0_ IFQ  --- 205 cbr 1520 [0 1 0 800] ------- [0:0 1:0 30 1] [205] 0 0
D 0.123625000 _0_ IFQ  --- 206 cbr 1520 [0 1 0 800] ------- [0:0 1:0 30 1] [206] 0 0
r 0.124216500 _1_ MAC  --- 16 cbr 1520 [13a 1 0 800] ------- [0:0 1:0 30 1] [16] 1 0
D 0.124225000 _0_ IFQ  --- 207 cbr 1520 [0 1 0 800] ------- [0:0 1:0 30 1] [207] 0 0
s 0.124226500 _1_ MAC  --- 0 ACK 38 [0 0 0 0] 
r 0.124531000 _0_ MAC  --- 0 ACK 38 [0 0 0 0] 
s 0.124821000 _0_ MAC  --- 17 cbr 1578 [13a 1 0 800] ------- [0:0 1:0 30 1] [17] 0 0
D 0.125425000 _0_ IFQ  --- 209 cbr 1520 [0 1 0 800] ------- [0:0 1:0 30 1] [209] 0 0
D 0.126025000 _0_ IFQ  --- 210 cbr 1520 [0 1 0 800] ------- [0:0 1:0 30 1] [210] 0 0
D 0.126625000 _0_ IFQ  --- 211 cbr 1520 [0 1 0 800] ------- [0:0 1:0 30 1] [211] 0 0
D 0.127225000 _0_ IFQ  --- 212 cbr 1520 [0 1 0 800] ------- [0:0 1:0 30 1] [212] 0 0
D 0.127825000 _0_ IFQ  --- 213 cbr 1520 [0 1 0 800] ------- [0:0 1:0 30 1] [213] 0 0
D 0.128425000 _0_ IFQ  --- 214 cbr 1520 [0 1 0 800] ------- [0:0 1:0 30 1] [214] 0 0
D 0.129025000 _0_ IFQ  --- 215 cbr 1520 [0 1 0 800] ------- [0:0 1:0 30 1] [215] 0 0
D 0.129625000 _0_ IFQ  --- 216 cbr 1520 [0 1 0 800] ------- [0:0 1:0 30 1] [216] 0 0
D 0.130225000 _0_ IFQ  --- 217 cbr 1520 [0 1 0 800] ------- [0:0 1:0 30 1] [217] 0 0
D 0.130825000 _0_ IFQ  --- 218 cbr 1520 [0 1 0 800] ------- [0:0 1:0 30 1] [218] 0 0
D 0.131425000 _0_ IFQ  --- 219 cbr 1520 [0 1 0 800] ------- [0:0 1:0 30 1] [219] 0 0
D 0.132025000 _0_ IFQ  --- 220 cbr 1520 [0 1 0 800] ------- [0:0 1:0 30 1] [220] 0 0
D 0.132625000 _0_ IFQ  --- 221 cbr 1520 [0 1 0 800] ------- [0:0 1:0 30 1] [221] 0 0
D 0.133225000 _0_ IFQ  --- 222 cbr 1520 [0 1 0 800] ------- [0:0 1:0 30 1] [222] 0 0
D 0.133825000 _0_ IFQ  --- 223 cbr 1520 [0 1 0 800] ------- [0:0 1:0 30 1] [223] 0 0
D 0.134425000 _0_ IFQ  --- 224 cbr 1520 [0 1 0 800] ------- [0:0 1:0 30 1] [224] 0 0
D 0.135025000 _0_ IFQ  --- 225 cbr 1520 [0 1 0 800] ------- [0:0 1:0 30 1] [225] 0 0
D 0.135625000 _0_ IFQ  --- 226 cbr 1520 [0 1 0 800] ------- [0:0 1:0 30 1] [226] 0 0
D 0.136225000 _0_ IFQ  --- 227 cbr 1520 [0 1 0 800] ------- [0:0 1:0 30 1] [227] 0 0
D 0.136825000 _0_ IFQ  --- 228 cbr 1520 [0 1 0 800] ------- [0:0 1:0 30 1] [228] 0 0
D 0.137425000 _0_ IFQ  --- 229 cbr 1520 [0 1 0 800] ------- [0:0 1:0 30 1] [229] 0 0
r 0.137445500 _1_ MAC  --- 17 cbr 1520 [13a 1 0 800] ------- [0:0 1:0 30 1] [17] 1 0
s 0.137455500 _1_ MAC  --- 0 ACK 38 [0 0 0 0] 
r 0.137760000 _0_ MAC  --- 0 ACK 38 [0 0 0 0] 
s 0.137970000 _0_ MAC  --- 18 cbr 1578 [13a 1 0 800] ------- [0:0 1:0 30 1] [18] 0 0
D 0.138625000 _0_ IFQ  --- 231 cbr 1520 [0 1 0 800] ------- [0:0 1:0 30 1] [231] 0 0
D 0.139225000 _0_ IFQ  --- 232 cbr 1520 [0 1 0 800] ------- [0:0 1:0 30 1] [232] 0 0
D 0.139825000 _0_ IFQ  --- 233 cbr 1520 [0 1 0 800] ------- [0:0 1:0 30 1] [233] 0 0
D 0.140425000 _0_ IFQ  --- 234 cbr 1520 [0 1 0 800] ------- [0:0 1:0 30 1] [234] 0 0
D 0.141025000 _0_ IFQ  --- 235 cbr 1520 [0 1 0 800] ------- [0:0 1:0 30 1] [235] 0 0
D 0.141625000 _0_ IFQ  --- 236 cbr 1520 [0 1 0 800] ------- [0:0 1:0 30 1] [236] 0 0
D 0.142225000 _0_ IFQ  --- 237 cbr 1520 [0 1 0 800] ------- [0:0 1:0 30 1] [237] 0 0
D 0.142825000 _0_ IFQ  --- 238 cbr 1520 [0 1 0 800] ------- [0:0 1:0 30 1] [238] 0 0
D 0.143425000 _0_ IFQ  --- 239 cbr 1520 [0 1 0 800] ------- [0:0 1:0 30 1] [239] 0 0
D 0.144025000 _0_ IFQ  --- 240 cbr 1520 [0 1 0 800] ------- [0:0 1:0 30 1] [240] 0 0
D 0.144625000 _0_ IFQ  --- 241 cbr 1520 [0 1 0 800] ------- [0:0 1:0 30 1] [241] 0 0
D 0.145225000 _0_ IFQ  --- 242 cbr 1520 [0 1 0 800] ------- [0:0 1:0 30 1] [242] 0 0
D 0.145825000 _0_ IFQ  --- 243 cbr 1520 [0 1 0 800] ------- [0:0 1:0 30 1] [243] 0 0
D 0.146425000 _0_ IFQ  --- 244 cbr 1520 [0 1 0 800] ------- [0:0 1:0 30 1] [244] 0 0
D 0.147025000 _0_ IFQ  --- 245 cbr 1520 [0 1 0 800] ------- [0:0 1:0 30 1] [245] 0 0
D 0.147625000 _0_ IFQ  --- 246 cbr 1520 [0 1 0 800] ------- [0:0 1:0 30 1] [246] 0 0
D 0.148225000 _0_ IFQ  --- 247 cbr 1520 [0 1 0 800] ------- [0:0 1:0 30 1] [247] 0 0
D 0.148825000 _0_ IFQ  --- 248 cbr 1520 [0 1 0 800] ------- [0:0 1:0 30 1] [248] 0 0
D 0.149425000 _0_ IFQ  --- 249 cbr 1520 [0 1 0 800] ------- [0:0 1:0 30 1] [249] 0 0
D 0.150025000 _0_ IFQ  --- 250 cbr 1520 [0 1 0 800] ------- [0:0 1:0 30 1] [250] 0 0
r 0.150594500 _1_ MAC  --- 18 cbr 1520 [13a 1 0 800] ------- [0:0 1:0 30 1] [18] 1 0
s 0.150604500 _1_ MAC  --- 0 ACK 38 [0 0 0 0] 
D 0.150625000 _0_ IFQ  --- 251 cbr 1520 [0 1 0 800] ------- [0:0 1:0 30 1] [251] 0 0
r 0.150909000 _0_ MAC  --- 0 ACK 38 [0 0 0 0] 
s 0.151439000 _0_ MAC  --- 19 cbr 1578 [13a 1 0 800] ------- [0:0 1:0 30 1] [19] 0 0
D 0.151825000 _0_ IFQ  --- 253 cbr 1520 [0 1 0 800] ------- [0:0 1:0 30 1] [253] 0 0
D 0.152425000 _0_ IFQ  --- 254 cbr 1520 [0 1 0 800] ------- [0:0 1:0 30 1] [254] 0 0
D 0.153025000 _0_ IFQ  --- 255 cbr 1520 [0 1 0 800] ------- [0:0 1:0 30 1] [255] 0 0
D 0.153625000 _0_ IFQ  --- 256 cbr 1520 [0 1 0 800] ------- [0:0 1:0 30 1] [256] 0 0
D 0.154225000 _0_ IFQ  --- 257 cbr 1520 [0 1 0 800] ------- [0:0 1:0 30 1] [257] 0 0
D 0.154825000 _0_ IFQ  --- 258 cbr 1520 [0 1 0 800] ------- [0:0 1:0 30 1] [258] 0 0
D 0.155425000 _0_ IFQ  --- 259 cbr 1520 [0 1 0 800] ------- [0:0 1:0 30 1] [259] 0 0
D 0.156025000 _0_ IFQ  --- 260 cbr 1520 [0 1 0 800] ------- [0:0 1:0 30 1] [260] 0 0
D 0.156625000 _0_ IFQ  --- 261 cbr 1520 [0 1 0 800] ------- [0:0 1:0 30 1] [261] 0 0
D 0.157225000 _0_ IFQ  --- 262 cbr 1520 [0 1 0 800] ------- [0:0 1:0 30 1] [262] 0 0
D 0.157825000 _0_ IFQ  --- 263 cbr 1520 [0 1 0 800] ------- [0:0 1:0 30 1] [263] 0 0
D 0.158425000 _0_ IFQ  --- 264 cbr 1520 [0 1 0 800] ------- [0:0 1:0 30 1] [264] 0 0
D 0.159025000 _0_ IFQ  --- 265 cbr 1520 [0 1 0 800] ------- [0:0 1:0 30 1] [265] 0 0
D 0.159625000 _0_ IFQ  --- 266 cbr 1520 [0 1 0 800] ------- [0:0 1:0 30 1] [266] 0 0
D 0.160225000 _0_ IFQ  --- 267 cbr 1520 [0 1 0 800] ------- [0:0 1:0 30 1] [267] 0 0
D 0.160825000 _0_ IFQ  --- 268 cbr 1520 [0 1 0 800] ------- [0:0 1:0 30 1] [268] 0 0
D 0.161425000 _0_ IFQ  --- 269 cbr 1520 [0 1 0 800] ------- [0:0 1:0 30 1] [269] 0 0
D 0.162025000 _0_ IFQ  --- 270 cbr 1520 [0 1 0 800] ------- [0:0 1:0 30 1] [270] 0 0
D 0.162625000 _0_ IFQ  --- 271 cbr 1520 [0 1 0 800] ------- [0:0 1:0 30 1] [271] 0 0
D 0.163225000 _0_ IFQ  --- 272 cbr 1520 [0 1 0 800] ------- [0:0 1:0 30 1] [272] 0 0
D 0.163825000 _0_ IFQ  --- 273 cbr 1520 [0 1 0 800] ------- [0:0 1:0 30 1] [273] 0 0
r 0.164063500 _1_ MAC  --- 19 cbr 1520 [13a 1 0 800] ------- [0:0 1:0 30 1] [19] 1 0
s 0.164073500 _1_ MAC  --- 0 ACK 38 [0 0 0 0] 
r 0.164378000 _0_ MAC  --- 0 ACK 38 [0 0 0 0] 
s 0.164768000 _0_ MAC  --- 20 cbr 1578 [13a 1 0 800] ------- [0:0 1:0 30 1] [20] 0 0
D 0.165025000 _0_ IFQ  --- 275 cbr 1520 [0 1 0 800] ------- [0:0 1:0 30 1] [275] 0 0
D 0.165625000 _0_ IFQ  --- 276 cbr 1520 [0 1 0 800] ------- [0:0 1:0 30 1] [276] 0 0
D 0.166225000 _0_ IFQ  --- 277 cbr 1520 [0 1 0 800] ------- [0:0 1:0 30 1] [277] 0 0
D 0.166825000 _0_ IFQ  --- 278 cbr 1520 [0 1 0 800] ------- [0:0 1:0 30 1] [278] 0 0
D 0.167425000 _0_ IFQ  --- 279 cbr 1520 [0 1 0 800] ------- [0:0 1:0 30 1] [279] 0 0
D 0.168025000 _0_ IFQ  --- 280 cbr 1520 [0 1 0 800] ------- [0:0 1:0 30 1] [280] 0 0
D 0.168625000 _0_ IFQ  --- 281 cbr 1520 [0 1 0 800] ------- [0:0 1:0 30 1] [281] 0 0
D 0.169225000 _0_ IFQ  --- 282 cbr 1520 [0 1 0 800] ------- [0:0 1:0 30 1] [282] 0 0
D 0.169825000 _0_ IFQ  --- 283 cbr 1520 [0 1 0 800] ------- [0:0 1:0 30 1] [283] 0 0
D 0.170425000 _0_ IFQ  --- 284 cbr 1520 [0 1 0 800] ------- [0:0 1:0 30 1] [284] 0 0
D 0.171025000 _0_ IFQ  --- 285 cbr 1520 [0 1 0 800] ------- [0:0 1:0 30 1] [285] 0 0
D 0.171625000 _0_ IFQ  --- 286 cbr 1520 [0 1 0 800] ------- [0:0 1:0 30 1] [286] 0 0
D 0.172225000 _0_ IFQ  --- 287 cbr 1520 [0 1 0 800] ------- [0:0 1:0 30 1] [287] 0 0
D 0.172825000 _0_ IFQ  --- 288 cbr 1520 [0 1 0 800] ------- [0:0 1:0 30 1] [288] 0 0
D 0.173425000 _0_ IFQ  --- 289 cbr 1520 [0 1 0 800] ------- [0:0 1:0 30 1] [289] 0 0
D 0.174025000 _0_ IFQ  --- 290 cbr 1520 [0 1 0 800] ------- [0:0 1:0 30 1] [290] 0 0
D 0.174625000 _0_ IFQ  --- 291 cbr 1520 [0 1 0 800] ------- [0:0 1:0 30 1] [291] 0 0
D 0.175225000 _0_ IFQ  --- 292 cbr 1520 [0 1 0 800] ------- [0:0 1:0 30 1] [292] 0 0
D 0.175825000 _0_ IFQ  --- 293 cbr 1520 [0 1 0 800] ------- [0:0 1:0 30 1] [293] 0 0
D 0.176425000 _0_ IFQ  --- 294 cbr 1520 [0 1 0 800] ------- [0:0 1:0 30 1] [294] 0 0
D 0.177025000 _0_ IFQ  --- 295 cbr 1520 [0 1 0 800] ------- [0:0 1:0 30 1] [295] 0 0
r 0.177392500 _1_ MAC  --- 20 cbr 1520 [13a 1 0 800] ------- [0:0 1:0 30 1] [20] 1 0
s 0.177402500 _1_ MAC  --- 0 ACK 38 [0 0 0 0] 
D 0.177625000 _0_ IFQ  --- 296 cbr 1520 [0 1 0 800] ------- [0:0 1:0 30 1] [296] 0 0
r 0.177707000 _0_ MAC  --- 0 ACK 38 [0 0 0 0] 
s 0.178077000 _0_ MAC  --- 21 cbr 1578 [13a 1 0 800] ------- [0:0 1:0 30 1] [21] 0 0
D 0.178825000 _0_ IFQ  --- 298 cbr 1520 [0 1 0 800] ------- [0:0 1:0 30 1] [298] 0 0
D 0.179425000 _0_ IFQ  --- 299 cbr 1520 [0 1 0 800] ------- [0:0 1:0 30 1] [299] 0 0
D 0.180025000 _0_ IFQ  --- 300 cbr 1520 [0 1 0 800] ------- [0:0 1:0 30 1] [300] 0 0
D 0.180625000 _0_ IFQ  --- 301 cbr 1520 [0 1 0 800] ------- [0:0 1:0 30 1] [301] 0 0
D 0.181225000 _0_ IFQ  --- 302 cbr 1520 [0 1 0 800] ------- [0:0 1:0 30 1] [302] 0 0
D 0.181825000 _0_ IFQ  --- 303 cbr 1520 [0 1 0 800] ------- [0:0 1:0 30 1] [303] 0 0
D 0.182425000 _0_ IFQ  --- 304 cbr 1520 [0 1 0 800] ------- [0:0 1:0 30 1] [304] 0 0
D 0.183025000 _0_ IFQ  --- 305 cbr 1520 [0 1 0 800] ------- [0:0 1:0 30 1] [305] 0 0
D 0.183625000 _0_ IFQ  --- 306 cbr 1520 [0 1 0 800] ------- [0:0 1:0 30 1] [306] 0 0
D 0.184225000 _0_ IFQ  --- 307 cbr 1520 [0 1 0 800] ------- [0:0 1:0 30 1] [307] 0 0
D 0.184825000 _0_ IFQ  --- 308 cbr 1520 [0 1 0 800] ------- [0:0 1:0 30 1] [308] 0 0
D 0.185425000 _0_ IFQ  --- 309 cbr 1520 [0 1 0 800] ------- [0:0 1:0 30 1] [309] 0 0
D 0.186025000 _0_ IFQ  --- 310 cbr 1520 [0 1 0 800] ------- [0:0 1:0 30 1] [310] 0 0
D 0.186625000 _0_ IFQ  --- 311 cbr 1520 [0 1 0 800] ------- [0:0 1:0 30 1] [311] 0 0
D 0.187225000 _0_ IFQ  --- 312 cbr 1520 [0 1 0 800] ------- [0:0 1:0 30 1] [312] 0 0
D 0.187825000 _0_ IFQ  --- 313 cbr 1520 [0 1 0 800] ------- [0:0 1:0 30 1] [313] 0 0
D 0.188425000 _0_ IFQ  --- 314 cbr 1520 [0 1 0 800] ------- [0:0 1:0 30 1] [314] 0 0
D 0.189025000 _0_ IFQ  --- 315 cbr 1520 [0 1 0 800] ------- [0:0 1:0 30 1] [315] 0 0
D 0.189625000 _0_ IFQ  --- 316 cbr 1520 [0 1 0 800] ------- [0:0 1:0 30 1] [316] 0 0
D 0.190225000 _0_ IFQ  --- 317 cbr 1520 [0 1 0 800] ------- [0:0 1:0 30 1] [317] 0 0
r 0.190701500 _1_ MAC  --- 21 cbr 1520 [13a 1 0 800] ------- [0:0 1:0 30 1] [21] 1 0
s 0.190711500 _1_ MAC  --- 0 ACK 38 [0 0 0 0] 
D 0.190825000 _0_ IFQ  --- 318 cbr 1520 [0 1 0 800] ------- [0:0 1:0 30 1] [318] 0 0
r 0.191016000 _0_ MAC  --- 0 ACK 38 [0 0 0 0] 
s 0.191266000 _0_ MAC  --- 22 cbr 1578 [13a 1 0 800] ------- [0:0 1:0 30 1] [22] 0 0
D 0.192025000 _0_ IFQ  --- 320 cbr 1520 [0 1 0 800] ------- [0:0 1:0 30 1] [320] 0 0
D 0.192625000 _0_ IFQ  --- 321 cbr 1520 [0 1 0 800] ------- [0:0 1:0 30 1] [321] 0 0
D 0.193225000 _0_ IFQ  --- 322 cbr 1520 [0 1 0 800] ------- [0:0 1:0 30 1] [322] 0 0
D 0.193825000 _0_ IFQ  --- 323 cbr 1520 [0 1 0 800] ------- [0:0 1:0 30 1] [323] 0 0
D 0.194425000 _0_ IFQ  --- 324 cbr 1520 [0 1 0 800] ------- [0:0 1:0 30 1] [324] 0 0
D 0.195025000 _0_ IFQ  --- 325 cbr 1520 [0 1 0 800] ------- [0:0 1:0 30 1] [325] 0 0
D 0.195625000 _0_ IFQ  --- 326 cbr 1520 [0 1 0 800] ------- [0:0 1:0 30 1] [326] 0 0
D 0.196225000 _0_ IFQ  --- 327 cbr 1520 [0 1 0 800] ------- [0:0 1:0 30 1] [327] 0 0
D 0.196825000 _0_ IFQ  --- 328 cbr 1520 [0 1 0 800] ------- [0:0 1:0 30 1] [328] 0 0
D 0.197425000 _0_ IFQ  --- 329 cbr 1520 [0 1 0 800] ------- [0:0 1:0 30 1] [329] 0 0
D 0.198025000 _0_ IFQ  --- 330 cbr 1520 [0 1 0 800] ------- [0:0 1:0 30 1] [330] 0 0
D 0.198625000 _0_ IFQ  --- 331 cbr 1520 [0 1 0 800] ------- [0:0 1:0 30 1] [331] 0 0
D 0.199225000 _0_ IFQ  --- 332 cbr 1520 [0 1 0 800] ------- [0:0 1:0 30 1] [332] 0 0