V -t * -v 1.0a5 -a 0
A -t * -n 1 -p 0 -o 0x7fffffff -c 30 -a 1
A -t * -h 1 -m 1073741823 -s 0
c -t * -i 1 -n green
c -t * -i 2 -n red
n -t * -a 0 -s 0 -S UP -v circle -c black -i black
n -t * -a 1 -s 1 -S UP -v circle -c black -i black
n -t * -a 2 -s 2 -S UP -v circle -c black -i black
n -t * -a 3 -s 3 -S UP -v circle -c black -i black
l -t * -s 0 -d 2 -S UP -r 1000000 -D 0.01 -c black
l -t * -s 1 -d 2 -S UP -r 1000000 -D 0.01 -c black
l -t * -s 2 -d 3 -S UP -r 500000 -D 0.02 -c black
q -t * -s 3 -d 2 -a 0.5
q -t * -s 2 -d 3 -a 0.5
+ -t 0.5 -s 1 -d 2 -p cbr -e 1000 -c 0 -i 0 -a 0 -x {1.0 3.0 0 ------- null}
- -t 0.5 -s 1 -d 2 -p cbr -e 1000 -c 0 -i 0 -a 0 -x {1.0 3.0 0 ------- null}
h -t 0.5 -s 1 -d 2 -p cbr -e 1000 -c 0 -i 0 -a 0 -x {1.0 3.0 -1 ------- null}
+ -t 0.508 -s 1 -d 2 -p cbr -e 1000 -c 0 -i 1 -a 0 -x {1.0 3.0 1 ------- null}
- -t 0.508 -s 1 -d 2 -p cbr -e 1000 -c 0 -i 1 -a 0 -x {1.0 3.0 1 ------- null}
h -t 0.508 -s 1 -d 2 -p cbr -e 1000 -c 0 -i 1 -a 0 -x {1.0 3.0 -1 ------- null}
+ -t 0.516 -s 1 -d 2 -p cbr -e 1000 -c 0 -i 2 -a 0 -x {1.0 3.0 2 ------- null}
- -t 0.516 -s 1 -d 2 -p cbr -e 1000 -c 0 -i 2 -a 0 -x {1.0 3.0 2 ------- null}
h -t 0.516 -s 1 -d 2 -p cbr -e 1000 -c 0 -i 2 -a 0 -x {1.0 3.0 -1 ------- null}
r -t 0.518 -s 1 -d 2 -p cbr -e 1000 -c 0 -i 0 -a 0 -x {1.0 3.0 0 ------- null}
+ -t 0.518 -s 2 -d 3 -p cbr -e 1000 -c 0 -i 0 -a 0 -x {1.0 3.0 0 ------- null}
- -t 0.518 -s 2 -d 3 -p cbr -e 1000 -c 0 -i 0 -a 0 -x {1.0 3.0 0 ------- null}
h -t 0.518 -s 2 -d 3 -p cbr -e 1000 -c 0 -i 0 -a 0 -x {1.0 3.0 -1 ------- null}
+ -t 0.524 -s 1 -d 2 -p cbr -e 1000 -c 0 -i 3 -a 0 -x {1.0 3.0 3 ------- null}
- -t 0.524 -s 1 -d 2 -p cbr -e 1000 -c 0 -i 3 -a 0 -x {1.0 3.0 3 ------- null}
h -t 0.524 -s 1 -d 2 -p cbr -e 1000 -c 0 -i 3 -a 0 -x {1.0 3.0 -1 ------- null}
r -t 0.526 -s 1 -d 2 -p cbr -e 1000 -c 0 -i 1 -a 0 -x {1.0 3.0 1 ------- null}
+ -t 0.526 -s 2 -d 3 -p cbr -e 1000 -c 0 -i 1 -a 0 -x {1.0 3.0 1 ------- null}
+ -t 0.532 -s 1 -d 2 -p cbr -e 1000 -c 0 -i 4 -a 0 -x {1.0 3.0 4 ------- null}
- -t 0.532 -s 1 -d 2 -p cbr -e 1000 -c 0 -i 4 -a 0 -x {1.0 3.0 4 ------- null}
h -t 0.532 -s 1 -d 2 -p cbr -e 1000 -c 0 -i 4 -a 0 -x {1.0 3.0 -1 ------- null}
r -t 0.534 -s 1 -d 2 -p cbr -e 1000 -c 0 -i 2 -a 0 -x {1.0 3.0 2 ------- null}
+ -t 0.534 -s 2 -d 3 -p cbr -e 1000 -c 0 -i 2 -a 0 -x {1.0 3.0 2 ------- null}
- -t 0.534 -s 2 -d 3 -p cbr -e 1000 -c 0 -i 1 -a 0 -x {1.0 3.0 1 ------- null}
h -t 0.534 -s 2 -d 3 -p cbr -e 1000 -c 0 -i 1 -a 0 -x {1.0 3.0 -1 ------- null}
+ -t 0.54 -s 1 -d 2 -p cbr -e 1000 -c 0 -i 5 -a 0 -x {1.0 3.0 5 ------- null}
- -t 0.54 -s 1 -d 2 -p cbr -e 1000 -c 0 -i 5 -a 0 -x {1.0 3.0 5 ------- null}
h -t 0.54 -s 1 -d 2 -p cbr -e 1000 -c 0 -i 5 -a 0 -x {1.0 3.0 -1 ------- null}
r -t 0.542 -s 1 -d 2 -p cbr -e 1000 -c 0 -i 3 -a 0 -x {1.0 3.0 3 ------- null}
+ -t 0.542 -s 2 -d 3 -p cbr -e 1000 -c 0 -i 3 -a 0 -x {1.0 3.0 3 ------- null}
+ -t 0.548 -s 1 -d 2 -p cbr -e 1000 -c 0 -i 6 -a 0 -x {1.0 3.0 6 ------- null}
- -t 0.548 -s 1 -d 2 -p cbr -e 1000 -c 0 -i 6 -a 0 -x {1.0 3.0 6 ------- null}
h -t 0.548 -s 1 -d 2 -p cbr -e 1000 -c 0 -i 6 -a 0 -x {1.0 3.0 -1 ------- null}
r -t 0.55 -s 1 -d 2 -p cbr -e 1000 -c 0 -i 4 -a 0 -x {1.0 3.0 4 ------- null}
+ -t 0.55 -s 2 -d 3 -p cbr -e 1000 -c 0 -i 4 -a 0 -x {1.0 3.0 4 ------- null}
- -t 0.55 -s 2 -d 3 -p cbr -e 1000 -c 0 -i 2 -a 0 -x {1.0 3.0 2 ------- null}
h -t 0.55 -s 2 -d 3 -p cbr -e 1000 -c 0 -i 2 -a 0 -x {1.0 3.0 -1 ------- null}
r -t 0.554 -s 2 -d 3 -p cbr -e 1000 -c 0 -i 0 -a 0 -x {1.0 3.0 0 ------- null}
+ -t 0.556 -s 1 -d 2 -p cbr -e 1000 -c 0 -i 7 -a 0 -x {1.0 3.0 7 ------- null}
- -t 0.556 -s 1 -d 2 -p cbr -e 1000 -c 0 -i 7 -a 0 -x {1.0 3.0 7 ------- null}
h -t 0.556 -s 1 -d 2 -p cbr -e 1000 -c 0 -i 7 -a 0 -x {1.0 3.0 -1 ------- null}
r -t 0.558 -s 1 -d 2 -p cbr -e 1000 -c 0 -i 5 -a 0 -x {1.0 3.0 5 ------- null}
+ -t 0.558 -s 2 -d 3 -p cbr -e 1000 -c 0 -i 5 -a 0 -x {1.0 3.0 5 ------- null}
+ -t 0.564 -s 1 -d 2 -p cbr -e 1000 -c 0 -i 8 -a 0 -x {1.0 3.0 8 ------- null}
- -t 0.564 -s 1 -d 2 -p cbr -e 1000 -c 0 -i 8 -a 0 -x {1.0 3.0 8 ------- null}
h -t 0.564 -s 1 -d 2 -p cbr -e 1000 -c 0 -i 8 -a 0 -x {1.0 3.0 -1 ------- null}
r -t 0.566 -s 1 -d 2 -p cbr -e 1000 -c 0 -i 6 -a 0 -x {1.0 3.0 6 ------- null}
+ -t 0.566 -s 2 -d 3 -p cbr -e 1000 -c 0 -i 6 -a 0 -x {1.0 3.0 6 ------- null}
- -t 0.566 -s 2 -d 3 -p cbr -e 1000 -c 0 -i 3 -a 0 -x {1.0 3.0 3 ------- null}
h -t 0.566 -s 2 -d 3 -p cbr -e 1000 -c 0 -i 3 -a 0 -x {1.0 3.0 -1 ------- null}
r -t 0.57 -s 2 -d 3 -p cbr -e 1000 -c 0 -i 1 -a 0 -x {1.0 3.0 1 ------- null}
+ -t 0.572 -s 1 -d 2 -p cbr -e 1000 -c 0 -i 9 -a 0 -x {1.0 3.0 9 ------- null}
- -t 0.572 -s 1 -d 2 -p cbr -e 1000 -c 0 -i 9 -a 0 -x {1.0 3.0 9 ------- null}
h -t 0.572 -s 1 -d 2 -p cbr -e 1000 -c 0 -i 9 -a 0 -x {1.0 3.0 -1 ------- null}
r -t 0.574 -s 1 -d 2 -p cbr -e 1000 -c 0 -i 7 -a 0 -x {1.0 3.0 7 ------- null}
+ -t 0.574 -s 2 -d 3 -p cbr -e 1000 -c 0 -i 7 -a 0 -x {1.0 3.0 7 ------- null}
+ -t 0.58 -s 1 -d 2 -p cbr -e 1000 -c 0 -i 10 -a 0 -x {1.0 3.0 10 ------- null}
- -t 0.58 -s 1 -d 2 -p cbr -e 1000 -c 0 -i 10 -a 0 -x {1.0 3.0 10 ------- null}
h -t 0.58 -s 1 -d 2 -p cbr -e 1000 -c 0 -i 10 -a 0 -x {1.0 3.0 -1 ------- null}
r -t 0.582 -s 1 -d 2 -p cbr -e 1000 -c 0 -i 8 -a 0 -x {1.0 3.0 8 ------- null}
+ -t 0.582 -s 2 -d 3 -p cbr -e 1000 -c 0 -i 8 -a 0 -x {1.0 3.0 8 ------- null}
- -t 0.582 -s 2 -d 3 -p cbr -e 1000 -c 0 -i 4 -a 0 -x {1.0 3.0 4 ------- null}
h -t 0.582 -s 2 -d 3 -p cbr -e 1000 -c 0 -i 4 -a 0 -x {1.0 3.0 -1 ------- null}
r -t 0.586 -s 2 -d 3 -p cbr -e 1000 -c 0 -i 2 -a 0 -x {1.0 3.0 2 ------- null}
+ -t 0.588 -s 1 -d 2 -p cbr -e 1000 -c 0 -i 11 -a 0 -x {1.0 3.0 11 ------- null}
- -t 0.588 -s 1 -d 2 -p cbr -e 1000 -c 0 -i 11 -a 0 -x {1.0 3.0 11 ------- null}
h -t 0.588 -s 1 -d 2 -p cbr -e 1000 -c 0 -i 11 -a 0 -x {1.0 3.0 -1 ------- null}
r -t 0.59 -s 1 -d 2 -p cbr -e 1000 -c 0 -i 9 -a 0 -x {1.0 3.0 9 ------- null}
+ -t 0.59 -s 2 -d 3 -p cbr -e 1000 -c 0 -i 9 -a 0 -x {1.0 3.0 9 ------- null}
+ -t 0.596 -s 1 -d 2 -p cbr -e 1000 -c 0 -i 12 -a 0 -x {1.0 3.0 12 ------- null}
- -t 0.596 -s 1 -d 2 -p cbr -e 1000 -c 0 -i 12 -a 0 -x {1.0 3.0 12 ------- null}
h -t 0.596 -s 1 -d 2 -p cbr -e 1000 -c 0 -i 12 -a 0 -x {1.0 3.0 -1 ------- null}
r -t 0.598 -s 1 -d 2 -p cbr -e 1000 -c 0 -i 10 -a 0 -x {1.0 3.0 10 ------- null}
+ -t 0.598 -s 2 -d 3 -p cbr -e 1000 -c 0 -i 10 -a 0 -x {1.0 3.0 10 ------- null}
- -t 0.598 -s 2 -d 3 -p cbr -e 1000 -c 0 -i 5 -a 0 -x {1.0 3.0 5 ------- null}
h -t 0.598 -s 2 -d 3 -p cbr -e 1000 -c 0 -i 5 -a 0 -x {1.0 3.0 -1 ------- null}
r -t 0.602 -s 2 -d 3 -p cbr -e 1000 -c 0 -i 3 -a 0 -x {1.0 3.0 3 ------- null}
+ -t 0.604 -s 1 -d 2 -p cbr -e 1000 -c 0 -i 13 -a 0 -x {1.0 3.0 13 ------- null}
- -t 0.604 -s 1 -d 2 -p cbr -e 1000 -c 0 -i 13 -a 0 -x {1.0 3.0 13 ------- null}
h -t 0.604 -s 1 -d 2 -p cbr -e 1000 -c 0 -i 13 -a 0 -x {1.0 3.0 -1 ------- null}
r -t 0.606 -s 1 -d 2 -p cbr -e 1000 -c 0 -i 11 -a 0 -x {1.0 3.0 11 ------- null}
+ -t 0.606 -s 2 -d 3 -p cbr -e 1000 -c 0 -i 11 -a 0 -x {1.0 3.0 11 ------- null}
+ -t 0.612 -s 1 -d 2 -p cbr -e 1000 -c 0 -i 14 -a 0 -x {1.0 3.0 14 ------- null}
- -t 0.612 -s 1 -d 2 -p cbr -e 1000 -c 0 -i 14 -a 0 -x {1.0 3.0 14 ------- null}
h -t 0.612 -s 1 -d 2 -p cbr -e 1000 -c 0 -i 14 -a 0 -x {1.0 3.0 -1 ------- null}
r -t 0.614 -s 1 -d 2 -p cbr -e 1000 -c 0 -i 12 -a 0 -x {1.0 3.0 12 ------- null}
+ -t 0.614 -s 2 -d 3 -p cbr -e 1000 -c 0 -i 12 -a 0 -x {1.0 3.0 12 ------- null}
- -t 0.614 -s 2 -d 3 -p cbr -e 1000 -c 0 -i 6 -a 0 -x {1.0 3.0 6 ------- null}
h -t 0.614 -s 2 -d 3 -p cbr -e 1000 -c 0 -i 6 -a 0 -x {1.0 3.0 -1 ------- null}
r -t 0.618 -s 2 -d 3 -p cbr -e 1000 -c 0 -i 4 -a 0 -x {1.0 3.0 4 ------- null}
+ -t 0.62 -s 1 -d 2 -p cbr -e 1000 -c 0 -i 15 -a 0 -x {1.0 3.0 15 ------- null}
- -t 0.62 -s 1 -d 2 -p cbr -e 1000 -c 0 -i 15 -a 0 -x {1.0 3.0 15 ------- null}
h -t 0.62 -s 1 -d 2 -p cbr -e 1000 -c 0 -i 15 -a 0 -x {1.0 3.0 -1 ------- null}
r -t 0.622 -s 1 -d 2 -p cbr -e 1000 -c 0 -i 13 -a 0 -x {1.0 3.0 13 ------- null}
+ -t 0.622 -s 2 -d 3 -p cbr -e 1000 -c 0 -i 13 -a 0 -x {1.0 3.0 13 ------- null}
+ -t 0.628 -s 1 -d 2 -p cbr -e 1000 -c 0 -i 16 -a 0 -x {1.0 3.0 16 ------- null}
- -t 0.628 -s 1 -d 2 -p cbr -e 1000 -c 0 -i 16 -a 0 -x {1.0 3.0 16 ------- null}
h -t 0.628 -s 1 -d 2 -p cbr -e 1000 -c 0 -i 16 -a 0 -x {1.0 3.0 -1 ------- null}
r -t 0.63 -s 1 -d 2 -p cbr -e 1000 -c 0 -i 14 -a 0 -x {1.0 3.0 14 ------- null}
+ -t 0.63 -s 2 -d 3 -p cbr -e 1000 -c 0 -i 14 -a 0 -x {1.0 3.0 14 ------- null}
- -t 0.63 -s 2 -d 3 -p cbr -e 1000 -c 0 -i 7 -a 0 -x {1.0 3.0 7 ------- null}
h -t 0.63 -s 2 -d 3 -p cbr -e 1000 -c 0 -i 7 -a 0 -x {1.0 3.0 -1 ------- null}
r -t 0.634 -s 2 -d 3 -p cbr -e 1000 -c 0 -i 5 -a 0 -x {1.0 3.0 5 ------- null}
+ -t 0.636 -s 1 -d 2 -p cbr -e 1000 -c 0 -i 17 -a 0 -x {1.0 3.0 17 ------- null}
- -t 0.636 -s 1 -d 2 -p cbr -e 1000 -c 0 -i 17 -a 0 -x {1.0 3.0 17 ------- null}
h -t 0.636 -s 1 -d 2 -p cbr -e 1000 -c 0 -i 17 -a 0 -x {1.0 3.0 -1 ------- null}
r -t 0.638 -s 1 -d 2 -p cbr -e 1000 -c 0 -i 15 -a 0 -x {1.0 3.0 15 ------- null}
+ -t 0.638 -s 2 -d 3 -p cbr -e 1000 -c 0 -i 15 -a 0 -x {1.0 3.0 15 ------- null}
+ -t 0.644 -s 1 -d 2 -p cbr -e 1000 -c 0 -i 18 -a 0 -x {1.0 3.0 18 ------- null}
- -t 0.644 -s 1 -d 2 -p cbr -e 1000 -c 0 -i 18 -a 0 -x {1.0 3.0 18 ------- null}
h -t 0.644 -s 1 -d 2 -p cbr -e 1000 -c 0 -i 18 -a 0 -x {1.0 3.0 -1 ------- null}
r -t 0.646 -s 1 -d 2 -p cbr -e 1000 -c 0 -i 16 -a 0 -x {1.0 3.0 16 ------- null}
+ -t 0.646 -s 2 -d 3 -p cbr -e 1000 -c 0 -i 16 -a 0 -x {1.0 3.0 16 ------- null}
- -t 0.646 -s 2 -d 3 -p cbr -e 1000 -c 0 -i 8 -a 0 -x {1.0 3.0 8 ------- null}
h -t 0.646 -s 2 -d 3 -p cbr -e 1000 -c 0 -i 8 -a 0 -x {1.0 3.0 -1 ------- null}
r -t 0.65 -s 2 -d 3 -p cbr -e 1000 -c 0 -i 6 -a 0 -x {1.0 3.0 6 ------- null}
+ -t 0.652 -s 1 -d 2 -p cbr -e 1000 -c 0 -i 19 -a 0 -x {1.0 3.0 19 ------- null}
- -t 0.652 -s 1 -d 2 -p cbr -e 1000 -c 0 -i 19 -a 0 -x {1.0 3.0 19 ------- null}
h -t 0.652 -s 1 -d 2 -p cbr -e 1000 -c 0 -i 19 -a 0 -x {1.0 3.0 -1 ------- null}
r -t 0.654 -s 1 -d 2 -p cbr -e 1000 -c 0 -i 17 -a 0 -x {1.0 3.0 17 ------- null}
+ -t 0.654 -s 2 -d 3 -p cbr -e 1000 -c 0 -i 17 -a 0 -x {1.0 3.0 17 ------- null}
+ -t 0.66 -s 1 -d 2 -p cbr -e 1000 -c 0 -i 20 -a 0 -x {1.0 3.0 20 ------- null}
- -t 0.66 -s 1 -d 2 -p cbr -e 1000 -c 0 -i 20 -a 0 -x {1.0 3.0 20 ------- null}
h -t 0.66 -s 1 -d 2 -p cbr -e 1000 -c 0 -i 20 -a 0 -x {1.0 3.0 -1 ------- null}
r -t 0.662 -s 1 -d 2 -p cbr -e 1000 -c 0 -i 18 -a 0 -x {1.0 3.0 18 ------- null}
+ -t 0.662 -s 2 -d 3 -p cbr -e 1000 -c 0 -i 18 -a 0 -x {1.0 3.0 18 ------- null}
- -t 0.662 -s 2 -d 3 -p cbr -e 1000 -c 0 -i 9 -a 0 -x {1.0 3.0 9 ------- null}
h -t 0.662 -s 2 -d 3 -p cbr -e 1000 -c 0 -i 9 -a 0 -x {1.0 3.0 -1 ------- null}
r -t 0.666 -s 2 -d 3 -p cbr -e 1000 -c 0 -i 7 -a 0 -x {1.0 3.0 7 ------- null}
+ -t 0.668 -s 1 -d 2 -p cbr -e 1000 -c 0 -i 21 -a 0 -x {1.0 3.0 21 ------- null}
- -t 0.668 -s 1 -d 2 -p cbr -e 1000 -c 0 -i 21 -a 0 -x {1.0 3.0 21 ------- null}
h -t 0.668 -s 1 -d 2 -p cbr -e 1000 -c 0 -i 21 -a 0 -x {1.0 3.0 -1 ------- null}
r -t 0.67 -s 1 -d 2 -p cbr -e 1000 -c 0 -i 19 -a 0 -x {1.0 3.0 19 ------- null}
+ -t 0.67 -s 2 -d 3 -p cbr -e 1000 -c 0 -i 19 -a 0 -x {1.0 3.0 19 ------- null}
+ -t 0.676 -s 1 -d 2 -p cbr -e 1000 -c 0 -i 22 -a 0 -x {1.0 3.0 22 ------- null}
- -t 0.676 -s 1 -d 2 -p cbr -e 1000 -c 0 -i 22 -a 0 -x {1.0 3.0 22 ------- null}
h -t 0.676 -s 1 -d 2 -p cbr -e 1000 -c 0 -i 22 -a 0 -x {1.0 3.0 -1 ------- null}
r -t 0.678 -s 1 -d 2 -p cbr -e 1000 -c 0 -i 20 -a 0 -x {1.0 3.0 20 ------- null}
+ -t 0.678 -s 2 -d 3 -p cbr -e 1000 -c 0 -i 20 -a 0 -x {1.0 3.0 20 ------- null}
- -t 0.678 -s 2 -d 3 -p cbr -e 1000 -c 0 -i 10 -a 0 -x {1.0 3.0 10 ------- null}
h -t 0.678 -s 2 -d 3 -p cbr -e 1000 -c 0 -i 10 -a 0 -x {1.0 3.0 -1 ------- null}
r -t 0.682 -s 2 -d 3 -p cbr -e 1000 -c 0 -i 8 -a 0 -x {1.0 3.0 8 ------- null}
+ -t 0.684 -s 1 -d 2 -p cbr -e 1000 -c 0 -i 23 -a 0 -x {1.0 3.0 23 ------- null}
- -t 0.684 -s 1 -d 2 -p cbr -e 1000 -c 0 -i 23 -a 0 -x {1.0 3.0 23 ------- null}
h -t 0.684 -s 1 -d 2 -p cbr -e 1000 -c 0 -i 23 -a 0 -x {1.0 3.0 -1 ------- null}
r -t 0.686 -s 1 -d 2 -p cbr -e 1000 -c 0 -i 21 -a 0 -x {1.0 3.0 21 ------- null}
+ -t 0.686 -s 2 -d 3 -p cbr -e 1000 -c 0 -i 21 -a 0 -x {1.0 3.0 21 ------- null}
+ -t 0.692 -s 1 -d 2 -p cbr -e 1000 -c 0 -i 24 -a 0 -x {1.0 3.0 24 ------- null}
- -t 0.692 -s 1 -d 2 -p cbr -e 1000 -c 0 -i 24 -a 0 -x {1.0 3.0 24 ------- null}
h -t 0.692 -s 1 -d 2 -p cbr -e 1000 -c 0 -i 24 -a 0 -x {1.0 3.0 -1 ------- null}
r -t 0.694 -s 1 -d 2 -p cbr -e 1000 -c 0 -i 22 -a 0 -x {1.0 3.0 22 ------- null}
+ -t 0.694 -s 2 -d 3 -p cbr -e 1000 -c 0 -i 22 -a 0 -x {1.0 3.0 22 ------- null}
- -t 0.694 -s 2 -d 3 -p cbr -e 1000 -c 0 -i 11 -a 0 -x {1.0 3.0 11 ------- null}
h -t 0.694 -s 2 -d 3 -p cbr -e 1000 -c 0 -i 11 -a 0 -x {1.0 3.0 -1 ------- null}
r -t 0.698 -s 2 -d 3 -p cbr -e 1000 -c 0 -i 9 -a 0 -x {1.0 3.0 9 ------- null}
+ -t 0.7 -s 1 -d 2 -p cbr -e 1000 -c 0 -i 25 -a 0 -x {1.0 3.0 25 ------- null}
- -t 0.7 -s 1 -d 2 -p cbr -e 1000 -c 0 -i 25 -a 0 -x {1.0 3.0 25 ------- null}
h -t 0.7 -s 1 -d 2 -p cbr -e 1000 -c 0 -i 25 -a 0 -x {1.0 3.0 -1 ------- null}
r -t 0.702 -s 1 -d 2 -p cbr -e 1000 -c 0 -i 23 -a 0 -x {1.0 3.0 23 ------- null}
+ -t 0.702 -s 2 -d 3 -p cbr -e 1000 -c 0 -i 23 -a 0 -x {1.0 3.0 23 ------- null}
+ -t 0.708 -s 1 -d 2 -p cbr -e 1000 -c 0 -i 26 -a 0 -x {1.0 3.0 26 ------- null}
- -t 0.708 -s 1 -d 2 -p cbr -e 1000 -c 0 -i 26 -a 0 -x {1.0 3.0 26 ------- null}
h -t 0.708 -s 1 -d 2 -p cbr -e 1000 -c 0 -i 26 -a 0 -x {1.0 3.0 -1 ------- null}
r -t 0.71 -s 1 -d 2 -p cbr -e 1000 -c 0 -i 24 -a 0 -x {1.0 3.0 24 ------- null}
+ -t 0.71 -s 2 -d 3 -p cbr -e 1000 -c 0 -i 24 -a 0 -x {1.0 3.0 24 ------- null}
- -t 0.71 -s 2 -d 3 -p cbr -e 1000 -c 0 -i 12 -a 0 -x {1.0 3.0 12 ------- null}
h -t 0.71 -s 2 -d 3 -p cbr -e 1000 -c 0 -i 12 -a 0 -x {1.0 3.0 -1 ------- null}
r -t 0.714 -s 2 -d 3 -p cbr -e 1000 -c 0 -i 10 -a 0 -x {1.0 3.0 10 ------- null}
+ -t 0.716 -s 1 -d 2 -p cbr -e 1000 -c 0 -i 27 -a 0 -x {1.0 3.0 27 ------- null}
- -t 0.716 -s 1 -d 2 -p cbr -e 1000 -c 0 -i 27 -a 0 -x {1.0 3.0 27 ------- null}
h -t 0.716 -s 1 -d 2 -p cbr -e 1000 -c 0 -i 27 -a 0 -x {1.0 3.0 -1 ------- null}
r -t 0.718 -s 1 -d 2 -p cbr -e 1000 -c 0 -i 25 -a 0 -x {1.0 3.0 25 ------- null}
+ -t 0.718 -s 2 -d 3 -p cbr -e 1000 -c 0 -i 25 -a 0 -x {1.0 3.0 25 ------- null}
+ -t 0.724 -s 1 -d 2 -p cbr -e 1000 -c 0 -i 28 -a 0 -x {1.0 3.0 28 ------- null}
- -t 0.724 -s 1 -d 2 -p cbr -e 1000 -c 0 -i 28 -a 0 -x {1.0 3.0 28 ------- null}
h -t 0.724 -s 1 -d 2 -p cbr -e 1000 -c 0 -i 28 -a 0 -x {1.0 3.0 -1 ------- null}
r -t 0.726 -s 1 -d 2 -p cbr -e 1000 -c 0 -i 26 -a 0 -x {1.0 3.0 26 ------- null}
+ -t 0.726 -s 2 -d 3 -p cbr -e 1000 -c 0 -i 26 -a 0 -x {1.0 3.0 26 ------- null}
- -t 0.726 -s 2 -d 3 -p cbr -e 1000 -c 0 -i 13 -a 0 -x {1.0 3.0 13 ------- null}
h -t 0.726 -s 2 -d 3 -p cbr -e 1000 -c 0 -i 13 -a 0 -x {1.0 3.0 -1 ------- null}
r -t 0.73 -s 2 -d 3 -p cbr -e 1000 -c 0 -i 11 -a 0 -x {1.0 3.0 11 ------- null}
+ -t 0.732 -s 1 -d 2 -p cbr -e 1000 -c 0 -i 29 -a 0 -x {1.0 3.0 29 ------- null}
- -t 0.732 -s 1 -d 2 -p cbr -e 1000 -c 0 -i 29 -a 0 -x {1.0 3.0 29 ------- null}
h -t 0.732 -s 1 -d 2 -p cbr -e 1000 -c 0 -i 29 -a 0 -x {1.0 3.0 -1 ------- null}
r -t 0.734 -s 1 -d 2 -p cbr -e 1000 -c 0 -i 27 -a 0 -x {1.0 3.0 27 ------- null}
+ -t 0.734 -s 2 -d 3 -p cbr -e 1000 -c 0 -i 27 -a 0 -x {1.0 3.0 27 ------- null}
+ -t 0.74 -s 1 -d 2 -p cbr -e 1000 -c 0 -i 30 -a 0 -x {1.0 3.0 30 ------- null}
- -t 0.74 -s 1 -d 2 -p cbr -e 1000 -c 0 -i 30 -a 0 -x {1.0 3.0 30 ------- null}
h -t 0.74 -s 1 -d 2 -p cbr -e 1000 -c 0 -i 30 -a 0 -x {1.0 3.0 -1 ------- null}
r -t 0.742 -s 1 -d 2 -p cbr -e 1000 -c 0 -i 28 -a 0 -x {1.0 3.0 28 ------- null}
+ -t 0.742 -s 2 -d 3 -p cbr -e 1000 -c 0 -i 28 -a 0 -x {1.0 3.0 28 ------- null}
- -t 0.742 -s 2 -d 3 -p cbr -e 1000 -c 0 -i 14 -a 0 -x {1.0 3.0 14 ------- null}
h -t 0.742 -s 2 -d 3 -p cbr -e 1000 -c 0 -i 14 -a 0 -x {1.0 3.0 -1 ------- null}
r -t 0.746 -s 2 -d 3 -p cbr -e 1000 -c 0 -i 12 -a 0 -x {1.0 3.0 12 ------- null}
+ -t 0.748 -s 1 -d 2 -p cbr -e 1000 -c 0 -i 31 -a 0 -x {1.0 3.0 31 ------- null}
- -t 0.748 -s 1 -d 2 -p cbr -e 1000 -c 0 -i 31 -a 0 -x {1.0 3.0 31 ------- null}
h -t 0.748 -s 1 -d 2 -p cbr -e 1000 -c 0 -i 31 -a 0 -x {1.0 3.0 -1 ------- null}
r -t 0.75 -s 1 -d 2 -p cbr -e 1000 -c 0 -i 29 -a 0 -x {1.0 3.0 29 ------- null}
+ -t 0.75 -s 2 -d 3 -p cbr -e 1000 -c 0 -i 29 -a 0 -x {1.0 3.0 29 ------- null}
+ -t 0.756 -s 1 -d 2 -p cbr -e 1000 -c 0 -i 32 -a 0 -x {1.0 3.0 32 ------- null}
- -t 0.756 -s 1 -d 2 -p cbr -e 1000 -c 0 -i 32 -a 0 -x {1.0 3.0 32 ------- null}
h -t 0.756 -s 1 -d 2 -p cbr -e 1000 -c 0 -i 32 -a 0 -x {1.0 3.0 -1 ------- null}
r -t 0.758 -s 1 -d 2 -p cbr -e 1000 -c 0 -i 30 -a 0 -x {1.0 3.0 30 ------- null}
+ -t 0.758 -s 2 -d 3 -p cbr -e 1000 -c 0 -i 30 -a 0 -x {1.0 3.0 30 ------- null}
- -t 0.758 -s 2 -d 3 -p cbr -e 1000 -c 0 -i 15 -a 0 -x {1.0 3.0 15 ------- null}
h -t 0.758 -s 2 -d 3 -p cbr -e 1000 -c 0 -i 15 -a 0 -x {1.0 3.0 -1 ------- null}
r -t 0.762 -s 2 -d 3 -p cbr -e 1000 -c 0 -i 13 -a 0 -x {1.0 3.0 13 ------- null}
+ -t 0.764 -s 1 -d 2 -p cbr -e 1000 -c 0 -i 33 -a 0 -x {1.0 3.0 33 ------- null}
- -t 0.764 -s 1 -d 2 -p cbr -e 1000 -c 0 -i 33 -a 0 -x {1.0 3.0 33 ------- null}
h -t 0.764 -s 1 -d 2 -p cbr -e 1000 -c 0 -i 33 -a 0 -x {1.0 3.0 -1 ------- null}
r -t 0.766 -s 1 -d 2 -p cbr -e 1000 -c 0 -i 31 -a 0 -x {1.0 3.0 31 ------- null}
+ -t 0.766 -s 2 -d 3 -p cbr -e 1000 -c 0 -i 31 -a 0 -x {1.0 3.0 31 ------- null}
+ -t 0.772 -s 1 -d 2 -p cbr -e 1000 -c 0 -i 34 -a 0 -x {1.0 3.0 34 ------- null}
- -t 0.772 -s 1 -d 2 -p cbr -e 1000 -c 0 -i 34 -a 0 -x {1.0 3.0 34 ------- null}
h -t 0.772 -s 1 -d 2 -p cbr -e 1000 -c 0 -i 34 -a 0 -x {1.0 3.0 -1 ------- null}
r -t 0.774 -s 1 -d 2 -p cbr -e 1000 -c 0 -i 32 -a 0 -x {1.0 3.0 32 ------- null}
+ -t 0.774 -s 2 -d 3 -p cbr -e 1000 -c 0 -i 32 -a 0 -x {1.0 3.0 32 ------- null}
- -t 0.774 -s 2 -d 3 -p cbr -e 1000 -c 0 -i 16 -a 0 -x {1.0 3.0 16 ------- null}
h -t 0.774 -s 2 -d 3 -p cbr -e 1000 -c 0 -i 16 -a 0 -x {1.0 3.0 -1 ------- null}
r -t 0.778 -s 2 -d 3 -p cbr -e 1000 -c 0 -i 14 -a 0 -x {1.0 3.0 14 ------- null}
+ -t 0.78 -s 1 -d 2 -p cbr -e 1000 -c 0 -i 35 -a 0 -x {1.0 3.0 35 ------- null}
- -t 0.78 -s 1 -d 2 -p cbr -e 1000 -c 0 -i 35 -a 0 -x {1.0 3.0 35 ------- null}
h -t 0.78 -s 1 -d 2 -p cbr -e 1000 -c 0 -i 35 -a 0 -x {1.0 3.0 -1 ------- null}
r -t 0.782 -s 1 -d 2 -p cbr -e 1000 -c 0 -i 33 -a 0 -x {1.0 3.0 33 ------- null}
+ -t 0.782 -s 2 -d 3 -p cbr -e 1000 -c 0 -i 33 -a 0 -x {1.0 3.0 33 ------- null}
+ -t 0.788 -s 1 -d 2 -p cbr -e 1000 -c 0 -i 36 -a 0 -x {1.0 3.0 36 ------- null}
- -t 0.788 -s 1 -d 2 -p cbr -e 1000 -c 0 -i 36 -a 0 -x {1.0 3.0 36 ------- null}
h -t 0.788 -s 1 -d 2 -p cbr -e 1000 -c 0 -i 36 -a 0 -x {1.0 3.0 -1 ------- null}
r -t 0.79 -s 1 -d 2 -p cbr -e 1000 -c 0 -i 34 -a 0 -x {1.0 3.0 34 ------- null}
+ -t 0.79 -s 2 -d 3 -p cbr -e 1000 -c 0 -i 34 -a 0 -x {1.0 3.0 34 ------- null}
- -t 0.79 -s 2 -d 3 -p cbr -e 1000 -c 0 -i 17 -a 0 -x {1.0 3.0 17 ------- null}
h -t 0.79 -s 2 -d 3 -p cbr -e 1000 -c 0 -i 17 -a 0 -x {1.0 3.0 -1 ------- null}
r -t 0.794 -s 2 -d 3 -p cbr -e 1000 -c 0 -i 15 -a 0 -x {1.0 3.0 15 ------- null}
+ -t 0.796 -s 1 -d 2 -p cbr -e 1000 -c 0 -i 37 -a 0 -x {1.0 3.0 37 ------- null}
- -t 0.796 -s 1 -d 2 -p cbr -e 1000 -c 0 -i 37 -a 0 -x {1.0 3.0 37 ------- null}
h -t 0.796 -s 1 -d 2 -p cbr -e 1000 -c 0 -i 37 -a 0 -x {1.0 3.0 -1 ------- null}
r -t 0.798 -s 1 -d 2 -p cbr -e 1000 -c 0 -i 35 -a 0 -x {1.0 3.0 35 ------- null}
+ -t 0.798 -s 2 -d 3 -p cbr -e 1000 -c 0 -i 35 -a 0 -x {1.0 3.0 35 ------- null}
+ -t 0.804 -s 1 -d 2 -p cbr -e 1000 -c 0 -i 38 -a 0 -x {1.0 3.0 38 ------- null}
- -t 0.804 -s 1 -d 2 -p cbr -e 1000 -c 0 -i 38 -a 0 -x {1.0 3.0 38 ------- null}
h -t 0.804 -s 1 -d 2 -p cbr -e 1000 -c 0 -i 38 -a 0 -x {1.0 3.0 -1 ------- null}
r -t 0.806 -s 1 -d 2 -p cbr -e 1000 -c 0 -i 36 -a 0 -x {1.0 3.0 36 ------- null}
+ -t 0.806 -s 2 -d 3 -p cbr -e 1000 -c 0 -i 36 -a 0 -x {1.0 3.0 36 ------- null}
- -t 0.806 -s 2 -d 3 -p cbr -e 1000 -c 0 -i 18 -a 0 -x {1.0 3.0 18 ------- null}
h -t 0.806 -s 2 -d 3 -p cbr -e 1000 -c 0 -i 18 -a 0 -x {1.0 3.0 -1 ------- null}
r -t 0.81 -s 2 -d 3 -p cbr -e 1000 -c 0 -i 16 -a 0 -x {1.0 3.0 16 ------- null}
+ -t 0.812 -s 1 -d 2 -p cbr -e 1000 -c 0 -i 39 -a 0 -x {1.0 3.0 39 ------- null}
- -t 0.812 -s 1 -d 2 -p cbr -e 1000 -c 0 -i 39 -a 0 -x {1.0 3.0 39 ------- null}
h -t 0.812 -s 1 -d 2 -p cbr -e 1000 -c 0 -i 39 -a 0 -x {1.0 3.0 -1 ------- null}
r -t 0.814 -s 1 -d 2 -p cbr -e 1000 -c 0 -i 37 -a 0 -x {1.0 3.0 37 ------- null}
+ -t 0.814 -s 2 -d 3 -p cbr -e 1000 -c 0 -i 37 -a 0 -x {1.0 3.0 37 ------- null}
+ -t 0.82 -s 1 -d 2 -p cbr -e 1000 -c 0 -i 40 -a 0 -x {1.0 3.0 40 ------- null}
- -t 0.82 -s 1 -d 2 -p cbr -e 1000 -c 0 -i 40 -a 0 -x {1.0 3.0 40 ------- null}
h -t 0.82 -s 1 -d 2 -p cbr -e 1000 -c 0 -i 40 -a 0 -x {1.0 3.0 -1 ------- null}
r -t 0.822 -s 1 -d 2 -p cbr -e 1000 -c 0 -i 38 -a 0 -x {1.0 3.0 38 ------- null}
+ -t 0.822 -s 2 -d 3 -p cbr -e 1000 -c 0 -i 38 -a 0 -x {1.0 3.0 38 ------- null}
- -t 0.822 -s 2 -d 3 -p cbr -e 1000 -c 0 -i 19 -a 0 -x {1.0 3.0 19 ------- null}
h -t 0.822 -s 2 -d 3 -p cbr -e 1000 -c 0 -i 19 -a 0 -x {1.0 3.0 -1 ------- null}
r -t 0.826 -s 2 -d 3 -p cbr -e 1000 -c 0 -i 17 -a 0 -x {1.0 3.0 17 ------- null}
+ -t 0.828 -s 1 -d 2 -p cbr -e 1000 -c 0 -i 41 -a 0 -x {1.0 3.0 41 ------- null}
- -t 0.828 -s 1 -d 2 -p cbr -e 1000 -c 0 -i 41 -a 0 -x {1.0 3.0 41 ------- null}
h -t 0.828 -s 1 -d 2 -p cbr -e 1000 -c 0 -i 41 -a 0 -x {1.0 3.0 -1 ------- null}
r -t 0.83 -s 1 -d 2 -p cbr -e 1000 -c 0 -i 39 -a 0 -x {1.0 3.0 39 ------- null}
+ -t 0.83 -s 2 -d 3 -p cbr -e 1000 -c 0 -i 39 -a 0 -x {1.0 3.0 39 ------- null}
+ -t 0.836 -s 1 -d 2 -p cbr -e 1000 -c 0 -i 42 -a 0 -x {1.0 3.0 42 ------- null}
- -t 0.836 -s 1 -d 2 -p cbr -e 1000 -c 0 -i 42 -a 0 -x {1.0 3.0 42 ------- null}
h -t 0.836 -s 1 -d 2 -p cbr -e 1000 -c 0 -i 42 -a 0 -x {1.0 3.0 -1 ------- null}
r -t 0.838 -s 1 -d 2 -p cbr -e 1000 -c 0 -i 40 -a 0 -x {1.0 3.0 40 ------- null}
+ -t 0.838 -s 2 -d 3 -p cbr -e 1000 -c 0 -i 40 -a 0 -x {1.0 3.0 40 ------- null}
- -t 0.838 -s 2 -d 3 -p cbr -e 1000 -c 0 -i 20 -a 0 -x {1.0 3.0 20 ------- null}
h -t 0.838 -s 2 -d 3 -p cbr -e 1000 -c 0 -i 20 -a 0 -x {1.0 3.0 -1 ------- null}
r -t 0.842 -s 2 -d 3 -p cbr -e 1000 -c 0 -i 18 -a 0 -x {1.0 3.0 18 ------- null}
+ -t 0.844 -s 1 -d 2 -p cbr -e 1000 -c 0 -i 43 -a 0 -x {1.0 3.0 43 ------- null}
- -t 0.844 -s 1 -d 2 -p cbr -e 1000 -c 0 -i 43 -a 0 -x {1.0 3.0 43 ------- null}
h -t 0.844 -s 1 -d 2 -p cbr -e 1000 -c 0 -i 43 -a 0 -x {1.0 3.0 -1 ------- null}
r -t 0.846 -s 1 -d 2 -p cbr -e 1000 -c 0 -i 41 -a 0 -x {1.0 3.0 41 ------- null}
+ -t 0.846 -s 2 -d 3 -p cbr -e 1000 -c 0 -i 41 -a 0 -x {1.0 3.0 41 ------- null}
+ -t 0.852 -s 1 -d 2 -p cbr -e 1000 -c 0 -i 44 -a 0 -x {1.0 3.0 44 ------- null}
- -t 0.852 -s 1 -d 2 -p cbr -e 1000 -c 0 -i 44 -a 0 -x {1.0 3.0 44 ------- null}
h -t 0.852 -s 1 -d 2 -p cbr -e 1000 -c 0 -i 44 -a 0 -x {1.0 3.0 -1 ------- null}
r -t 0.854 -s 1 -d 2 -p cbr -e 1000 -c 0 -i 42 -a 0 -x {1.0 3.0 42 ------- null}
+ -t 0.854 -s 2 -d 3 -p cbr -e 1000 -c 0 -i 42 -a 0 -x {1.0 3.0 42 ------- null}
- -t 0.854 -s 2 -d 3 -p cbr -e 1000 -c 0 -i 21 -a 0 -x {1.0 3.0 21 ------- null}
h -t 0.854 -s 2 -d 3 -p cbr -e 1000 -c 0 -i 21 -a 0 -x {1.0 3.0 -1 ------- null}
r -t 0.858 -s 2 -d 3 -p cbr -e 1000 -c 0 -i 19 -a 0 -x {1.0 3.0 19 ------- null}
+ -t 0.86 -s 1 -d 2 -p cbr -e 1000 -c 0 -i 45 -a 0 -x {1.0 3.0 45 ------- null}
- -t 0.86 -s 1 -d 2 -p cbr -e 1000 -c 0 -i 45 -a 0 -x {1.0 3.0 45 ------- null}
h -t 0.86 -s 1 -d 2 -p cbr -e 1000 -c 0 -i 45 -a 0 -x {1.0 3.0 -1 ------- null}
r -t 0.862 -s 1 -d 2 -p cbr -e 1000 -c 0 -i 43 -a 0 -x {1.0 3.0 43 ------- null}
+ -t 0.862 -s 2 -d 3 -p cbr -e 1000 -c 0 -i 43 -a 0 -x {1.0 3.0 43 ------- null}
+ -t 0.868 -s 1 -d 2 -p cbr -e 1000 -c 0 -i 46 -a 0 -x {1.0 3.0 46 ------- null}
- -t 0.868 -s 1 -d 2 -p cbr -e 1000 -c 0 -i 46 -a 0 -x {1.0 3.0 46 ------- null}
h -t 0.868 -s 1 -d 2 -p cbr -e 1000 -c 0 -i 46 -a 0 -x {1.0 3.0 -1 ------- null}
r -t 0.87 -s 1 -d 2 -p cbr -e 1000 -c 0 -i 44 -a 0 -x {1.0 3.0 44 ------- null}
+ -t 0.87 -s 2 -d 3 -p cbr -e 1000 -c 0 -i 44 -a 0 -x {1.0 3.0 44 ------- null}
- -t 0.87 -s 2 -d 3 -p cbr -e 1000 -c 0 -i 22 -a 0 -x {1.0 3.0 22 ------- null}
h -t 0.87 -s 2 -d 3 -p cbr -e 1000 -c 0 -i 22 -a 0 -x {1.0 3.0 -1 ------- null}
r -t 0.874 -s 2 -d 3 -p cbr -e 1000 -c 0 -i 20 -a 0 -x {1.0 3.0 20 ------- null}
+ -t 0.876 -s 1 -d 2 -p cbr -e 1000 -c 0 -i 47 -a 0 -x {1.0 3.0 47 ------- null}
- -t 0.876 -s 1 -d 2 -p cbr -e 1000 -c 0 -i 47 -a 0 -x {1.0 3.0 47 ------- null}
h -t 0.876 -s 1 -d 2 -p cbr -e 1000 -c 0 -i 47 -a 0 -x {1.0 3.0 -1 ------- null}
r -t 0.878 -s 1 -d 2 -p cbr -e 1000 -c 0 -i 45 -a 0 -x {1.0 3.0 45 ------- null}
+ -t 0.878 -s 2 -d 3 -p cbr -e 1000 -c 0 -i 45 -a 0 -x {1.0 3.0 45 ------- null}
+ -t 0.884 -s 1 -d 2 -p cbr -e 1000 -c 0 -i 48 -a 0 -x {1.0 3.0 48 ------- null}
- -t 0.884 -s 1 -d 2 -p cbr -e 1000 -c 0 -i 48 -a 0 -x {1.0 3.0 48 ------- null}
h -t 0.884 -s 1 -d 2 -p cbr -e 1000 -c 0 -i 48 -a 0 -x {1.0 3.0 -1 ------- null}
r -t 0.886 -s 1 -d 2 -p cbr -e 1000 -c 0 -i 46 -a 0 -x {1.0 3.0 46 ------- null}
+ -t 0.886 -s 2 -d 3 -p cbr -e 1000 -c 0 -i 46 -a 0 -x {1.0 3.0 46 ------- null}
- -t 0.886 -s 2 -d 3 -p cbr -e 1000 -c 0 -i 23 -a 0 -x {1.0 3.0 23 ------- null}
h -t 0.886 -s 2 -d 3 -p cbr -e 1000 -c 0 -i 23 -a 0 -x {1.0 3.0 -1 ------- null}
r -t 0.89 -s 2 -d 3 -p cbr -e 1000 -c 0 -i 21 -a 0 -x {1.0 3.0 21 ------- null}
+ -t 0.892 -s 1 -d 2 -p cbr -e 1000 -c 0 -i 49 -a 0 -x {1.0 3.0 49 ------- null}
- -t 0.892 -s 1 -d 2 -p cbr -e 1000 -c 0 -i 49 -a 0 -x {1.0 3.0 49 ------- null}
h -t 0.892 -s 1 -d 2 -p cbr -e 1000 -c 0 -i 49 -a 0 -x {1.0 3.0 -1 ------- null}
r -t 0.894 -s 1 -d 2 -p cbr -e 1000 -c 0 -i 47 -a 0 -x {1.0 3.0 47 ------- null}
+ -t 0.894 -s 2 -d 3 -p cbr -e 1000 -c 0 -i 47 -a 0 -x {1.0 3.0 47 ------- null}
+ -t 0.9 -s 1 -d 2 -p cbr -e 1000 -c 0 -i 50 -a 0 -x {1.0 3.0 50 ------- null}
- -t 0.9 -s 1 -d 2 -p cbr -e 1000 -c 0 -i 50 -a 0 -x {1.0 3.0 50 ------- null}
h -t 0.9 -s 1 -d 2 -p cbr -e 1000 -c 0 -i 50 -a 0 -x {1.0 3.0 -1 ------- null}
r -t 0.902 -s 1 -d 2 -p cbr -e 1000 -c 0 -i 48 -a 0 -x {1.0 3.0 48 ------- null}
+ -t 0.902 -s 2 -d 3 -p cbr -e 1000 -c 0 -i 48 -a 0 -x {1.0 3.0 48 ------- null}
- -t 0.902 -s 2 -d 3 -p cbr -e 1000 -c 0 -i 24 -a 0 -x {1.0 3.0 24 ------- null}
h -t 0.902 -s 2 -d 3 -p cbr -e 1000 -c 0 -i 24 -a 0 -x {1.0 3.0 -1 ------- null}
r -t 0.906 -s 2 -d 3 -p cbr -e 1000 -c 0 -i 22 -a 0 -x {1.0 3.0 22 ------- null}
+ -t 0.908 -s 1 -d 2 -p cbr -e 1000 -c 0 -i 51 -a 0 -x {1.0 3.0 51 ------- null}
- -t 0.908 -s 1 -d 2 -p cbr -e 1000 -c 0 -i 51 -a 0 -x {1.0 3.0 51 ------- null}
h -t 0.908 -s 1 -d 2 -p cbr -e 1000 -c 0 -i 51 -a 0 -x {1.0 3.0 -1 ------- null}
r -t 0.91 -s 1 -d 2 -p cbr -e 1000 -c 0 -i 49 -a 0 -x {1.0 3.0 49 ------- null}
+ -t 0.91 -s 2 -d 3 -p cbr -e 1000 -c 0 -i 49 -a 0 -x {1.0 3.0 49 ------- null}
+ -t 0.916 -s 1 -d 2 -p cbr -e 1000 -c 0 -i 52 -a 0 -x {1.0 3.0 52 ------- null}
- -t 0.916 -s 1 -d 2 -p cbr -e 1000 -c 0 -i 52 -a 0 -x {1.0 3.0 52 ------- null}
h -t 0.916 -s 1 -d 2 -p cbr -e 1000 -c 0 -i 52 -a 0 -x {1.0 3.0 -1 ------- null}
r -t 0.918 -s 1 -d 2 -p cbr -e 1000 -c 0 -i 50 -a 0 -x {1.0 3.0 50 ------- null}
+ -t 0.918 -s 2 -d 3 -p cbr -e 1000 -c 0 -i 50 -a 0 -x {1.0 3.0 50 ------- null}
- -t 0.918 -s 2 -d 3 -p cbr -e 1000 -c 0 -i 25 -a 0 -x {1.0 3.0 25 ------- null}
h -t 0.918 -s 2 -d 3 -p cbr -e 1000 -c 0 -i 25 -a 0 -x {1.0 3.0 -1 ------- null}
r -t 0.922 -s 2 -d 3 -p cbr -e 1000 -c 0 -i 23 -a 0 -x {1.0 3.0 23 ------- null}
+ -t 0.924 -s 1 -d 2 -p cbr -e 1000 -c 0 -i 53 -a 0 -x {1.0 3.0 53 ------- null}
- -t 0.924 -s 1 -d 2 -p cbr -e 1000 -c 0 -i 53 -a 0 -x {1.0 3.0 53 ------- null}
h -t 0.924 -s 1 -d 2 -p cbr -e 1000 -c 0 -i 53 -a 0 -x {1.0 3.0 -1 ------- null}
r -t 0.926 -s 1 -d 2 -p cbr -e 1000 -c 0 -i 51 -a 0 -x {1.0 3.0 51 ------- null}
+ -t 0.926 -s 2 -d 3 -p cbr -e 1000 -c 0 -i 51 -a 0 -x {1.0 3.0 51 ------- null}
+ -t 0.932 -s 1 -d 2 -p cbr -e 1000 -c 0 -i 54 -a 0 -x {1.0 3.0 54 ------- null}
- -t 0.932 -s 1 -d 2 -p cbr -e 1000 -c 0 -i 54 -a 0 -x {1.0 3.0 54 ------- null}
h -t 0.932 -s 1 -d 2 -p cbr -e 1000 -c 0 -i 54 -a 0 -x {1.0 3.0 -1 ------- null}
r -t 0.934 -s 1 -d 2 -p cbr -e 1000 -c 0 -i 52 -a 0 -x {1.0 3.0 52 ------- null}
+ -t 0.934 -s 2 -d 3 -p cbr -e 1000 -c 0 -i 52 -a 0 -x {1.0 3.0 52 ------- null}
- -t 0.934 -s 2 -d 3 -p cbr -e 1000 -c 0 -i 26 -a 0 -x {1.0 3.0 26 ------- null}
h -t 0.934 -s 2 -d 3 -p cbr -e 1000 -c 0 -i 26 -a 0 -x {1.0 3.0 -1 ------- null}
r -t 0.938 -s 2 -d 3 -p cbr -e 1000 -c 0 -i 24 -a 0 -x {1.0 3.0 24 ------- null}
+ -t 0.94 -s 1 -d 2 -p cbr -e 1000 -c 0 -i 55 -a 0 -x {1.0 3.0 55 ------- null}
- -t 0.94 -s 1 -d 2 -p cbr -e 1000 -c 0 -i 55 -a 0 -x {1.0 3.0 55 ------- null}
h -t 0.94 -s 1 -d 2 -p cbr -e 1000 -c 0 -i 55 -a 0 -x {1.0 3.0 -1 ------- null}
r -t 0.942 -s 1 -d 2 -p cbr -e 1000 -c 0 -i 53 -a 0 -x {1.0 3.0 53 ------- null}
+ -t 0.942 -s 2 -d 3 -p cbr -e 1000 -c 0 -i 53 -a 0 -x {1.0 3.0 53 ------- null}
+ -t 0.948 -s 1 -d 2 -p cbr -e 1000 -c 0 -i 56 -a 0 -x {1.0 3.0 56 ------- null}
- -t 0.948 -s 1 -d 2 -p cbr -e 1000 -c 0 -i 56 -a 0 -x {1.0 3.0 56 ------- null}
h -t 0.948 -s 1 -d 2 -p cbr -e 1000 -c 0 -i 56 -a 0 -x {1.0 3.0 -1 ------- null}
r -t 0.95 -s 1 -d 2 -p cbr -e 1000 -c 0 -i 54 -a 0 -x {1.0 3.0 54 ------- null}
+ -t 0.95 -s 2 -d 3 -p cbr -e 1000 -c 0 -i 54 -a 0 -x {1.0 3.0 54 ------- null}
- -t 0.95 -s 2 -d 3 -p cbr -e 1000 -c 0 -i 27 -a 0 -x {1.0 3.0 27 ------- null}
h -t 0.95 -s 2 -d 3 -p cbr -e 1000 -c 0 -i 27 -a 0 -x {1.0 3.0 -1 ------- null}
r -t 0.954 -s 2 -d 3 -p cbr -e 1000 -c 0 -i 25 -a 0 -x {1.0 3.0 25 ------- null}
+ -t 0.956 -s 1 -d 2 -p cbr -e 1000 -c 0 -i 57 -a 0 -x {1.0 3.0 57 ------- null}
- -t 0.956 -s 1 -d 2 -p cbr -e 1000 -c 0 -i 57 -a 0 -x {1.0 3.0 57 ------- null}
h -t 0.956 -s 1 -d 2 -p cbr -e 1000 -c 0 -i 57 -a 0 -x {1.0 3.0 -1 ------- null}