+ 0.5 1 2 cbr 1000 ------- 0 1.0 3.0 0 0
- 0.5 1 2 cbr 1000 ------- 0 1.0 3.0 0 0
+ 0.508 1 2 cbr 1000 ------- 0 1.0 3.0 1 1
- 0.508 1 2 cbr 1000 ------- 0 1.0 3.0 1 1
+ 0.516 1 2 cbr 1000 ------- 0 1.0 3.0 2 2
- 0.516 1 2 cbr 1000 ------- 0 1.0 3.0 2 2
r 0.518 1 2 cbr 1000 ------- 0 1.0 3.0 0 0
+ 0.518 2 3 cbr 1000 ------- 0 1.0 3.0 0 0
- 0.518 2 3 cbr 1000 ------- 0 1.0 3.0 0 0
+ 0.524 1 2 cbr 1000 ------- 0 1.0 3.0 3 3
- 0.524 1 2 cbr 1000 ------- 0 1.0 3.0 3 3
r 0.526 1 2 cbr 1000 ------- 0 1.0 3.0 1 1
+ 0.526 2 3 cbr 1000 ------- 0 1.0 3.0 1 1
+ 0.532 1 2 cbr 1000 ------- 0 1.0 3.0 4 4
- 0.532 1 2 cbr 1000 ------- 0 1.0 3.0 4 4
r 0.534 1 2 cbr 1000 ------- 0 1.0 3.0 2 2
+ 0.534 2 3 cbr 1000 ------- 0 1.0 3.0 2 2
- 0.534 2 3 cbr 1000 ------- 0 1.0 3.0 1 1
+ 0.54 1 2 cbr 1000 ------- 0 1.0 3.0 5 5
- 0.54 1 2 cbr 1000 ------- 0 1.0 3.0 5 5
r 0.542 1 2 cbr 1000 ------- 0 1.0 3.0 3 3
+ 0.542 2 3 cbr 1000 ------- 0 1.0 3.0 3 3
+ 0.548 1 2 cbr 1000 ------- 0 1.0 3.0 6 6
- 0.548 1 2 cbr 1000 ------- 0 1.0 3.0 6 6
r 0.55 1 2 cbr 1000 ------- 0 1.0 3.0 4 4
+ 0.55 2 3 cbr 1000 ------- 0 1.0 3.0 4 4
- 0.55 2 3 cbr 1000 ------- 0 1.0 3.0 2 2
r 0.554 2 3 cbr 1000 ------- 0 1.0 3.0 0 0
+ 0.556 1 2 cbr 1000 ------- 0 1.0 3.0 7 7
- 0.556 1 2 cbr 1000 ------- 0 1.0 3.0 7 7
r 0.558 1 2 cbr 1000 ------- 0 1.0 3.0 5 5
+ 0.558 2 3 cbr 1000 ------- 0 1.0 3.0 5 5
+ 0.564 1 2 cbr 1000 ------- 0 1.0 3.0 8 8
- 0.564 1 2 cbr 1000 ------- 0 1.0 3.0 8 8
r 0.566 1 2 cbr 1000 ------- 0 1.0 3.0 6 6
+ 0.566 2 3 cbr 1000 ------- 0 1.0 3.0 6 6
- 0.566 2 3 cbr 1000 ------- 0 1.0 3.0 3 3
r 0.57 2 3 cbr 1000 ------- 0 1.0 3.0 1 1
+ 0.572 1 2 cbr 1000 ------- 0 1.0 3.0 9 9
- 0.572 1 2 cbr 1000 ------- 0 1.0 3.0 9 9
r 0.574 1 2 cbr 1000 ------- 0 1.0 3.0 7 7
+ 0.574 2 3 cbr 1000 ------- 0 1.0 3.0 7 7
+ 0.58 1 2 cbr 1000 ------- 0 1.0 3.0 10 10
- 0.58 1 2 cbr 1000 ------- 0 1.0 3.0 10 10
r 0.582 1 2 cbr 1000 ------- 0 1.0 3.0 8 8
+ 0.582 2 3 cbr 1000 ------- 0 1.0 3.0 8 8
- 0.582 2 3 cbr 1000 ------- 0 1.0 3.0 4 4
r 0.586 2 3 cbr 1000 ------- 0 1.0 3.0 2 2
+ 0.588 1 2 cbr 1000 ------- 0 1.0 3.0 11 11
- 0.588 1 2 cbr 1000 ------- 0 1.0 3.0 11 11
r 0.59 1 2 cbr 1000 ------- 0 1.0 3.0 9 9
+ 0.59 2 3 cbr 1000 ------- 0 1.0 3.0 9 9
+ 0.596 1 2 cbr 1000 ------- 0 1.0 3.0 12 12
- 0.596 1 2 cbr 1000 ------- 0 1.0 3.0 12 12
r 0.598 1 2 cbr 1000 ------- 0 1.0 3.0 10 10
+ 0.598 2 3 cbr 1000 ------- 0 1.0 3.0 10 10
- 0.598 2 3 cbr 1000 ------- 0 1.0 3.0 5 5
r 0.602 2 3 cbr 1000 ------- 0 1.0 3.0 3 3
+ 0.604 1 2 cbr 1000 ------- 0 1.0 3.0 13 13
- 0.604 1 2 cbr 1000 ------- 0 1.0 3.0 13 13
r 0.606 1 2 cbr 1000 ------- 0 1.0 3.0 11 11
+ 0.606 2 3 cbr 1000 ------- 0 1.0 3.0 11 11
+ 0.612 1 2 cbr 1000 ------- 0 1.0 3.0 14 14
- 0.612 1 2 cbr 1000 ------- 0 1.0 3.0 14 14
r 0.614 1 2 cbr 1000 ------- 0 1.0 3.0 12 12
+ 0.614 2 3 cbr 1000 ------- 0 1.0 3.0 12 12
- 0.614 2 3 cbr 1000 ------- 0 1.0 3.0 6 6
r 0.618 2 3 cbr 1000 ------- 0 1.0 3.0 4 4
+ 0.62 1 2 cbr 1000 ------- 0 1.0 3.0 15 15
- 0.62 1 2 cbr 1000 ------- 0 1.0 3.0 15 15
r 0.622 1 2 cbr 1000 ------- 0 1.0 3.0 13 13
+ 0.622 2 3 cbr 1000 ------- 0 1.0 3.0 13 13
+ 0.628 1 2 cbr 1000 ------- 0 1.0 3.0 16 16
- 0.628 1 2 cbr 1000 ------- 0 1.0 3.0 16 16
r 0.63 1 2 cbr 1000 ------- 0 1.0 3.0 14 14
+ 0.63 2 3 cbr 1000 ------- 0 1.0 3.0 14 14
- 0.63 2 3 cbr 1000 ------- 0 1.0 3.0 7 7
r 0.634 2 3 cbr 1000 ------- 0 1.0 3.0 5 5
+ 0.636 1 2 cbr 1000 ------- 0 1.0 3.0 17 17
- 0.636 1 2 cbr 1000 ------- 0 1.0 3.0 17 17
r 0.638 1 2 cbr 1000 ------- 0 1.0 3.0 15 15
+ 0.638 2 3 cbr 1000 ------- 0 1.0 3.0 15 15
+ 0.644 1 2 cbr 1000 ------- 0 1.0 3.0 18 18
- 0.644 1 2 cbr 1000 ------- 0 1.0 3.0 18 18
r 0.646 1 2 cbr 1000 ------- 0 1.0 3.0 16 16
+ 0.646 2 3 cbr 1000 ------- 0 1.0 3.0 16 16
- 0.646 2 3 cbr 1000 ------- 0 1.0 3.0 8 8
r 0.65 2 3 cbr 1000 ------- 0 1.0 3.0 6 6
+ 0.652 1 2 cbr 1000 ------- 0 1.0 3.0 19 19
- 0.652 1 2 cbr 1000 ------- 0 1.0 3.0 19 19
r 0.654 1 2 cbr 1000 ------- 0 1.0 3.0 17 17
+ 0.654 2 3 cbr 1000 ------- 0 1.0 3.0 17 17
+ 0.66 1 2 cbr 1000 ------- 0 1.0 3.0 20 20
- 0.66 1 2 cbr 1000 ------- 0 1.0 3.0 20 20
r 0.662 1 2 cbr 1000 ------- 0 1.0 3.0 18 18
+ 0.662 2 3 cbr 1000 ------- 0 1.0 3.0 18 18
- 0.662 2 3 cbr 1000 ------- 0 1.0 3.0 9 9
r 0.666 2 3 cbr 1000 ------- 0 1.0 3.0 7 7
+ 0.668 1 2 cbr 1000 ------- 0 1.0 3.0 21 21
- 0.668 1 2 cbr 1000 ------- 0 1.0 3.0 21 21
r 0.67 1 2 cbr 1000 ------- 0 1.0 3.0 19 19
+ 0.67 2 3 cbr 1000 ------- 0 1.0 3.0 19 19
+ 0.676 1 2 cbr 1000 ------- 0 1.0 3.0 22 22
- 0.676 1 2 cbr 1000 ------- 0 1.0 3.0 22 22
r 0.678 1 2 cbr 1000 ------- 0 1.0 3.0 20 20
+ 0.678 2 3 cbr 1000 ------- 0 1.0 3.0 20 20
- 0.678 2 3 cbr 1000 ------- 0 1.0 3.0 10 10
r 0.682 2 3 cbr 1000 ------- 0 1.0 3.0 8 8
+ 0.684 1 2 cbr 1000 ------- 0 1.0 3.0 23 23
- 0.684 1 2 cbr 1000 ------- 0 1.0 3.0 23 23
r 0.686 1 2 cbr 1000 ------- 0 1.0 3.0 21 21
+ 0.686 2 3 cbr 1000 ------- 0 1.0 3.0 21 21
+ 0.692 1 2 cbr 1000 ------- 0 1.0 3.0 24 24
- 0.692 1 2 cbr 1000 ------- 0 1.0 3.0 24 24
r 0.694 1 2 cbr 1000 ------- 0 1.0 3.0 22 22
+ 0.694 2 3 cbr 1000 ------- 0 1.0 3.0 22 22
- 0.694 2 3 cbr 1000 ------- 0 1.0 3.0 11 11
r 0.698 2 3 cbr 1000 ------- 0 1.0 3.0 9 9
+ 0.7 1 2 cbr 1000 ------- 0 1.0 3.0 25 25
- 0.7 1 2 cbr 1000 ------- 0 1.0 3.0 25 25
r 0.702 1 2 cbr 1000 ------- 0 1.0 3.0 23 23
+ 0.702 2 3 cbr 1000 ------- 0 1.0 3.0 23 23
+ 0.708 1 2 cbr 1000 ------- 0 1.0 3.0 26 26
- 0.708 1 2 cbr 1000 ------- 0 1.0 3.0 26 26
r 0.71 1 2 cbr 1000 ------- 0 1.0 3.0 24 24
+ 0.71 2 3 cbr 1000 ------- 0 1.0 3.0 24 24
- 0.71 2 3 cbr 1000 ------- 0 1.0 3.0 12 12
r 0.714 2 3 cbr 1000 ------- 0 1.0 3.0 10 10
+ 0.716 1 2 cbr 1000 ------- 0 1.0 3.0 27 27
- 0.716 1 2 cbr 1000 ------- 0 1.0 3.0 27 27
r 0.718 1 2 cbr 1000 ------- 0 1.0 3.0 25 25
+ 0.718 2 3 cbr 1000 ------- 0 1.0 3.0 25 25
+ 0.724 1 2 cbr 1000 ------- 0 1.0 3.0 28 28
- 0.724 1 2 cbr 1000 ------- 0 1.0 3.0 28 28
r 0.726 1 2 cbr 1000 ------- 0 1.0 3.0 26 26
+ 0.726 2 3 cbr 1000 ------- 0 1.0 3.0 26 26
- 0.726 2 3 cbr 1000 ------- 0 1.0 3.0 13 13
r 0.73 2 3 cbr 1000 ------- 0 1.0 3.0 11 11
+ 0.732 1 2 cbr 1000 ------- 0 1.0 3.0 29 29
- 0.732 1 2 cbr 1000 ------- 0 1.0 3.0 29 29
r 0.734 1 2 cbr 1000 ------- 0 1.0 3.0 27 27
+ 0.734 2 3 cbr 1000 ------- 0 1.0 3.0 27 27
+ 0.74 1 2 cbr 1000 ------- 0 1.0 3.0 30 30
- 0.74 1 2 cbr 1000 ------- 0 1.0 3.0 30 30
r 0.742 1 2 cbr 1000 ------- 0 1.0 3.0 28 28
+ 0.742 2 3 cbr 1000 ------- 0 1.0 3.0 28 28
- 0.742 2 3 cbr 1000 ------- 0 1.0 3.0 14 14
r 0.746 2 3 cbr 1000 ------- 0 1.0 3.0 12 12
+ 0.748 1 2 cbr 1000 ------- 0 1.0 3.0 31 31
- 0.748 1 2 cbr 1000 ------- 0 1.0 3.0 31 31
r 0.75 1 2 cbr 1000 ------- 0 1.0 3.0 29 29
+ 0.75 2 3 cbr 1000 ------- 0 1.0 3.0 29 29
+ 0.756 1 2 cbr 1000 ------- 0 1.0 3.0 32 32
- 0.756 1 2 cbr 1000 ------- 0 1.0 3.0 32 32
r 0.758 1 2 cbr 1000 ------- 0 1.0 3.0 30 30
+ 0.758 2 3 cbr 1000 ------- 0 1.0 3.0 30 30
- 0.758 2 3 cbr 1000 ------- 0 1.0 3.0 15 15
r 0.762 2 3 cbr 1000 ------- 0 1.0 3.0 13 13
+ 0.764 1 2 cbr 1000 ------- 0 1.0 3.0 33 33
- 0.764 1 2 cbr 1000 ------- 0 1.0 3.0 33 33
r 0.766 1 2 cbr 1000 ------- 0 1.0 3.0 31 31
+ 0.766 2 3 cbr 1000 ------- 0 1.0 3.0 31 31
+ 0.772 1 2 cbr 1000 ------- 0 1.0 3.0 34 34
- 0.772 1 2 cbr 1000 ------- 0 1.0 3.0 34 34
r 0.774 1 2 cbr 1000 ------- 0 1.0 3.0 32 32
+ 0.774 2 3 cbr 1000 ------- 0 1.0 3.0 32 32
- 0.774 2 3 cbr 1000 ------- 0 1.0 3.0 16 16
r 0.778 2 3 cbr 1000 ------- 0 1.0 3.0 14 14
+ 0.78 1 2 cbr 1000 ------- 0 1.0 3.0 35 35
- 0.78 1 2 cbr 1000 ------- 0 1.0 3.0 35 35
r 0.782 1 2 cbr 1000 ------- 0 1.0 3.0 33 33
+ 0.782 2 3 cbr 1000 ------- 0 1.0 3.0 33 33
+ 0.788 1 2 cbr 1000 ------- 0 1.0 3.0 36 36
- 0.788 1 2 cbr 1000 ------- 0 1.0 3.0 36 36
r 0.79 1 2 cbr 1000 ------- 0 1.0 3.0 34 34
+ 0.79 2 3 cbr 1000 ------- 0 1.0 3.0 34 34
- 0.79 2 3 cbr 1000 ------- 0 1.0 3.0 17 17
r 0.794 2 3 cbr 1000 ------- 0 1.0 3.0 15 15
+ 0.796 1 2 cbr 1000 ------- 0 1.0 3.0 37 37
- 0.796 1 2 cbr 1000 ------- 0 1.0 3.0 37 37
r 0.798 1 2 cbr 1000 ------- 0 1.0 3.0 35 35
+ 0.798 2 3 cbr 1000 ------- 0 1.0 3.0 35 35
+ 0.804 1 2 cbr 1000 ------- 0 1.0 3.0 38 38
- 0.804 1 2 cbr 1000 ------- 0 1.0 3.0 38 38
r 0.806 1 2 cbr 1000 ------- 0 1.0 3.0 36 36
+ 0.806 2 3 cbr 1000 ------- 0 1.0 3.0 36 36
- 0.806 2 3 cbr 1000 ------- 0 1.0 3.0 18 18
r 0.81 2 3 cbr 1000 ------- 0 1.0 3.0 16 16
+ 0.812 1 2 cbr 1000 ------- 0 1.0 3.0 39 39
- 0.812 1 2 cbr 1000 ------- 0 1.0 3.0 39 39
r 0.814 1 2 cbr 1000 ------- 0 1.0 3.0 37 37
+ 0.814 2 3 cbr 1000 ------- 0 1.0 3.0 37 37
+ 0.82 1 2 cbr 1000 ------- 0 1.0 3.0 40 40
- 0.82 1 2 cbr 1000 ------- 0 1.0 3.0 40 40
r 0.822 1 2 cbr 1000 ------- 0 1.0 3.0 38 38
+ 0.822 2 3 cbr 1000 ------- 0 1.0 3.0 38 38
- 0.822 2 3 cbr 1000 ------- 0 1.0 3.0 19 19
r 0.826 2 3 cbr 1000 ------- 0 1.0 3.0 17 17
+ 0.828 1 2 cbr 1000 ------- 0 1.0 3.0 41 41
- 0.828 1 2 cbr 1000 ------- 0 1.0 3.0 41 41
r 0.83 1 2 cbr 1000 ------- 0 1.0 3.0 39 39
+ 0.83 2 3 cbr 1000 ------- 0 1.0 3.0 39 39
+ 0.836 1 2 cbr 1000 ------- 0 1.0 3.0 42 42
- 0.836 1 2 cbr 1000 ------- 0 1.0 3.0 42 42
r 0.838 1 2 cbr 1000 ------- 0 1.0 3.0 40 40
+ 0.838 2 3 cbr 1000 ------- 0 1.0 3.0 40 40
- 0.838 2 3 cbr 1000 ------- 0 1.0 3.0 20 20
r 0.842 2 3 cbr 1000 ------- 0 1.0 3.0 18 18
+ 0.844 1 2 cbr 1000 ------- 0 1.0 3.0 43 43
- 0.844 1 2 cbr 1000 ------- 0 1.0 3.0 43 43
r 0.846 1 2 cbr 1000 ------- 0 1.0 3.0 41 41
+ 0.846 2 3 cbr 1000 ------- 0 1.0 3.0 41 41
+ 0.852 1 2 cbr 1000 ------- 0 1.0 3.0 44 44
- 0.852 1 2 cbr 1000 ------- 0 1.0 3.0 44 44
r 0.854 1 2 cbr 1000 ------- 0 1.0 3.0 42 42
+ 0.854 2 3 cbr 1000 ------- 0 1.0 3.0 42 42
- 0.854 2 3 cbr 1000 ------- 0 1.0 3.0 21 21
r 0.858 2 3 cbr 1000 ------- 0 1.0 3.0 19 19
+ 0.86 1 2 cbr 1000 ------- 0 1.0 3.0 45 45
- 0.86 1 2 cbr 1000 ------- 0 1.0 3.0 45 45
r 0.862 1 2 cbr 1000 ------- 0 1.0 3.0 43 43
+ 0.862 2 3 cbr 1000 ------- 0 1.0 3.0 43 43
+ 0.868 1 2 cbr 1000 ------- 0 1.0 3.0 46 46
- 0.868 1 2 cbr 1000 ------- 0 1.0 3.0 46 46
r 0.87 1 2 cbr 1000 ------- 0 1.0 3.0 44 44
+ 0.87 2 3 cbr 1000 ------- 0 1.0 3.0 44 44
- 0.87 2 3 cbr 1000 ------- 0 1.0 3.0 22 22
r 0.874 2 3 cbr 1000 ------- 0 1.0 3.0 20 20
+ 0.876 1 2 cbr 1000 ------- 0 1.0 3.0 47 47
- 0.876 1 2 cbr 1000 ------- 0 1.0 3.0 47 47
r 0.878 1 2 cbr 1000 ------- 0 1.0 3.0 45 45
+ 0.878 2 3 cbr 1000 ------- 0 1.0 3.0 45 45
+ 0.884 1 2 cbr 1000 ------- 0 1.0 3.0 48 48
- 0.884 1 2 cbr 1000 ------- 0 1.0 3.0 48 48
r 0.886 1 2 cbr 1000 ------- 0 1.0 3.0 46 46
+ 0.886 2 3 cbr 1000 ------- 0 1.0 3.0 46 46
- 0.886 2 3 cbr 1000 ------- 0 1.0 3.0 23 23
r 0.89 2 3 cbr 1000 ------- 0 1.0 3.0 21 21
+ 0.892 1 2 cbr 1000 ------- 0 1.0 3.0 49 49
- 0.892 1 2 cbr 1000 ------- 0 1.0 3.0 49 49
r 0.894 1 2 cbr 1000 ------- 0 1.0 3.0 47 47
+ 0.894 2 3 cbr 1000 ------- 0 1.0 3.0 47 47
+ 0.9 1 2 cbr 1000 ------- 0 1.0 3.0 50 50
- 0.9 1 2 cbr 1000 ------- 0 1.0 3.0 50 50
r 0.902 1 2 cbr 1000 ------- 0 1.0 3.0 48 48
+ 0.902 2 3 cbr 1000 ------- 0 1.0 3.0 48 48
- 0.902 2 3 cbr 1000 ------- 0 1.0 3.0 24 24
r 0.906 2 3 cbr 1000 ------- 0 1.0 3.0 22 22
+ 0.908 1 2 cbr 1000 ------- 0 1.0 3.0 51 51
- 0.908 1 2 cbr 1000 ------- 0 1.0 3.0 51 51
r 0.91 1 2 cbr 1000 ------- 0 1.0 3.0 49 49
+ 0.91 2 3 cbr 1000 ------- 0 1.0 3.0 49 49
+ 0.916 1 2 cbr 1000 ------- 0 1.0 3.0 52 52
- 0.916 1 2 cbr 1000 ------- 0 1.0 3.0 52 52
r 0.918 1 2 cbr 1000 ------- 0 1.0 3.0 50 50
+ 0.918 2 3 cbr 1000 ------- 0 1.0 3.0 50 50
- 0.918 2 3 cbr 1000 ------- 0 1.0 3.0 25 25
r 0.922 2 3 cbr 1000 ------- 0 1.0 3.0 23 23
+ 0.924 1 2 cbr 1000 ------- 0 1.0 3.0 53 53
- 0.924 1 2 cbr 1000 ------- 0 1.0 3.0 53 53
r 0.926 1 2 cbr 1000 ------- 0 1.0 3.0 51 51
+ 0.926 2 3 cbr 1000 ------- 0 1.0 3.0 51 51
+ 0.932 1 2 cbr 1000 ------- 0 1.0 3.0 54 54
- 0.932 1 2 cbr 1000 ------- 0 1.0 3.0 54 54
r 0.934 1 2 cbr 1000 ------- 0 1.0 3.0 52 52
+ 0.934 2 3 cbr 1000 ------- 0 1.0 3.0 52 52
- 0.934 2 3 cbr 1000 ------- 0 1.0 3.0 26 26
r 0.938 2 3 cbr 1000 ------- 0 1.0 3.0 24 24
+ 0.94 1 2 cbr 1000 ------- 0 1.0 3.0 55 55
- 0.94 1 2 cbr 1000 ------- 0 1.0 3.0 55 55
r 0.942 1 2 cbr 1000 ------- 0 1.0 3.0 53 53
+ 0.942 2 3 cbr 1000 ------- 0 1.0 3.0 53 53
+ 0.948 1 2 cbr 1000 ------- 0 1.0 3.0 56 56
- 0.948 1 2 cbr 1000 ------- 0 1.0 3.0 56 56
r 0.95 1 2 cbr 1000 ------- 0 1.0 3.0 54 54
+ 0.95 2 3 cbr 1000 ------- 0 1.0 3.0 54 54
- 0.95 2 3 cbr 1000 ------- 0 1.0 3.0 27 27
r 0.954 2 3 cbr 1000 ------- 0 1.0 3.0 25 25
+ 0.956 1 2 cbr 1000 ------- 0 1.0 3.0 57 57
- 0.956 1 2 cbr 1000 ------- 0 1.0 3.0 57 57
r 0.958 1 2 cbr 1000 ------- 0 1.0 3.0 55 55
+ 0.958 2 3 cbr 1000 ------- 0 1.0 3.0 55 55
+ 0.964 1 2 cbr 1000 ------- 0 1.0 3.0 58 58
- 0.964 1 2 cbr 1000 ------- 0 1.0 3.0 58 58
r 0.966 1 2 cbr 1000 ------- 0 1.0 3.0 56 56
+ 0.966 2 3 cbr 1000 ------- 0 1.0 3.0 56 56
- 0.966 2 3 cbr 1000 ------- 0 1.0 3.0 28 28
r 0.97 2 3 cbr 1000 ------- 0 1.0 3.0 26 26
+ 0.972 1 2 cbr 1000 ------- 0 1.0 3.0 59 59
- 0.972 1 2 cbr 1000 ------- 0 1.0 3.0 59 59
r 0.974 1 2 cbr 1000 ------- 0 1.0 3.0 57 57
+ 0.974 2 3 cbr 1000 ------- 0 1.0 3.0 57 57
+ 0.98 1 2 cbr 1000 ------- 0 1.0 3.0 60 60
- 0.98 1 2 cbr 1000 ------- 0 1.0 3.0 60 60
r 0.982 1 2 cbr 1000 ------- 0 1.0 3.0 58 58
+ 0.982 2 3 cbr 1000 ------- 0 1.0 3.0 58 58
- 0.982 2 3 cbr 1000 ------- 0 1.0 3.0 29 29
r 0.986 2 3 cbr 1000 ------- 0 1.0 3.0 27 27
+ 0.988 1 2 cbr 1000 ------- 0 1.0 3.0 61 61
- 0.988 1 2 cbr 1000 ------- 0 1.0 3.0 61 61
r 0.99 1 2 cbr 1000 ------- 0 1.0 3.0 59 59
+ 0.99 2 3 cbr 1000 ------- 0 1.0 3.0 59 59
+ 0.996 1 2 cbr 1000 ------- 0 1.0 3.0 62 62
- 0.996 1 2 cbr 1000 ------- 0 1.0 3.0 62 62
r 0.998 1 2 cbr 1000 ------- 0 1.0 3.0 60 60
+ 0.998 2 3 cbr 1000 ------- 0 1.0 3.0 60 60
- 0.998 2 3 cbr 1000 ------- 0 1.0 3.0 30 30
r 1.002 2 3 cbr 1000 ------- 0 1.0 3.0 28 28
+ 1.004 1 2 cbr 1000 ------- 0 1.0 3.0 63 63
- 1.004 1 2 cbr 1000 ------- 0 1.0 3.0 63 63
r 1.006 1 2 cbr 1000 ------- 0 1.0 3.0 61 61
+ 1.006 2 3 cbr 1000 ------- 0 1.0 3.0 61 61
+ 1.012 1 2 cbr 1000 ------- 0 1.0 3.0 64 64
- 1.012 1 2 cbr 1000 ------- 0 1.0 3.0 64 64
r 1.014 1 2 cbr 1000 ------- 0 1.0 3.0 62 62
+ 1.014 2 3 cbr 1000 ------- 0 1.0 3.0 62 62
- 1.014 2 3 cbr 1000 ------- 0 1.0 3.0 31 31
r 1.018 2 3 cbr 1000 ------- 0 1.0 3.0 29 29
+ 1.02 1 2 cbr 1000 ------- 0 1.0 3.0 65 65
- 1.02 1 2 cbr 1000 ------- 0 1.0 3.0 65 65
r 1.022 1 2 cbr 1000 ------- 0 1.0 3.0 63 63
+ 1.022 2 3 cbr 1000 ------- 0 1.0 3.0 63 63
+ 1.028 1 2 cbr 1000 ------- 0 1.0 3.0 66 66
- 1.028 1 2 cbr 1000 ------- 0 1.0 3.0 66 66
r 1.03 1 2 cbr 1000 ------- 0 1.0 3.0 64 64
+ 1.03 2 3 cbr 1000 ------- 0 1.0 3.0 64 64
- 1.03 2 3 cbr 1000 ------- 0 1.0 3.0 32 32
r 1.034 2 3 cbr 1000 ------- 0 1.0 3.0 30 30
+ 1.036 1 2 cbr 1000 ------- 0 1.0 3.0 67 67
- 1.036 1 2 cbr 1000 ------- 0 1.0 3.0 67 67
r 1.038 1 2 cbr 1000 ------- 0 1.0 3.0 65 65
+ 1.038 2 3 cbr 1000 ------- 0 1.0 3.0 65 65
+ 1.044 1 2 cbr 1000 ------- 0 1.0 3.0 68 68
- 1.044 1 2 cbr 1000 ------- 0 1.0 3.0 68 68
r 1.046 1 2 cbr 1000 ------- 0 1.0 3.0 66 66
+ 1.046 2 3 cbr 1000 ------- 0 1.0 3.0 66 66
- 1.046 2 3 cbr 1000 ------- 0 1.0 3.0 33 33
r 1.05 2 3 cbr 1000 ------- 0 1.0 3.0 31 31
+ 1.052 1 2 cbr 1000 ------- 0 1.0 3.0 69 69
- 1.052 1 2 cbr 1000 ------- 0 1.0 3.0 69 69
r 1.054 1 2 cbr 1000 ------- 0 1.0 3.0 67 67
+ 1.054 2 3 cbr 1000 ------- 0 1.0 3.0 67 67
+ 1.06 1 2 cbr 1000 ------- 0 1.0 3.0 70 70
- 1.06 1 2 cbr 1000 ------- 0 1.0 3.0 70 70
r 1.062 1 2 cbr 1000 ------- 0 1.0 3.0 68 68
+ 1.062 2 3 cbr 1000 ------- 0 1.0 3.0 68 68
- 1.062 2 3 cbr 1000 ------- 0 1.0 3.0 34 34
r 1.066 2 3 cbr 1000 ------- 0 1.0 3.0 32 32
+ 1.068 1 2 cbr 1000 ------- 0 1.0 3.0 71 71
- 1.068 1 2 cbr 1000 ------- 0 1.0 3.0 71 71
r 1.07 1 2 cbr 1000 ------- 0 1.0 3.0 69 69
+ 1.07 2 3 cbr 1000 ------- 0 1.0 3.0 69 69
+ 1.076 1 2 cbr 1000 ------- 0 1.0 3.0 72 72
- 1.076 1 2 cbr 1000 ------- 0 1.0 3.0 72 72
r 1.078 1 2 cbr 1000 ------- 0 1.0 3.0 70 70
+ 1.078 2 3 cbr 1000 ------- 0 1.0 3.0 70 70
- 1.078 2 3 cbr 1000 ------- 0 1.0 3.0 35 35
r 1.082 2 3 cbr 1000 ------- 0 1.0 3.0 33 33
+ 1.084 1 2 cbr 1000 ------- 0 1.0 3.0 73 73
- 1.084 1 2 cbr 1000 ------- 0 1.0 3.0 73 73
r 1.086 1 2 cbr 1000 ------- 0 1.0 3.0 71 71
+ 1.086 2 3 cbr 1000 ------- 0 1.0 3.0 71 71
+ 1.092 1 2 cbr 1000 ------- 0 1.0 3.0 74 74
- 1.092 1 2 cbr 1000 ------- 0 1.0 3.0 74 74
r 1.094 1 2 cbr 1000 ------- 0 1.0 3.0 72 72
+ 1.094 2 3 cbr 1000 ------- 0 1.0 3.0 72 72
- 1.094 2 3 cbr 1000 ------- 0 1.0 3.0 36 36
r 1.098 2 3 cbr 1000 ------- 0 1.0 3.0 34 34
+ 1.1 1 2 cbr 1000 ------- 0 1.0 3.0 75 75
- 1.1 1 2 cbr 1000 ------- 0 1.0 3.0 75 75
r 1.102 1 2 cbr 1000 ------- 0 1.0 3.0 73 73
+ 1.102 2 3 cbr 1000 ------- 0 1.0 3.0 73 73
+ 1.108 1 2 cbr 1000 ------- 0 1.0 3.0 76 76
- 1.108 1 2 cbr 1000 ------- 0 1.0 3.0 76 76
r 1.11 1 2 cbr 1000 ------- 0 1.0 3.0 74 74
+ 1.11 2 3 cbr 1000 ------- 0 1.0 3.0 74 74
- 1.11 2 3 cbr 1000 ------- 0 1.0 3.0 37 37
r 1.114 2 3 cbr 1000 ------- 0 1.0 3.0 35 35
+ 1.116 1 2 cbr 1000 ------- 0 1.0 3.0 77 77
- 1.116 1 2 cbr 1000 ------- 0 1.0 3.0 77 77
r 1.118 1 2 cbr 1000 ------- 0 1.0 3.0 75 75
+ 1.118 2 3 cbr 1000 ------- 0 1.0 3.0 75 75
+ 1.124 1 2 cbr 1000 ------- 0 1.0 3.0 78 78
- 1.124 1 2 cbr 1000 ------- 0 1.0 3.0 78 78
r 1.126 1 2 cbr 1000 ------- 0 1.0 3.0 76 76
+ 1.126 2 3 cbr 1000 ------- 0 1.0 3.0 76 76
- 1.126 2 3 cbr 1000 ------- 0 1.0 3.0 38 38
r 1.13 2 3 cbr 1000 ------- 0 1.0 3.0 36 36
+ 1.132 1 2 cbr 1000 ------- 0 1.0 3.0 79 79
- 1.132 1 2 cbr 1000 ------- 0 1.0 3.0 79 79
r 1.134 1 2 cbr 1000 ------- 0 1.0 3.0 77 77
+ 1.134 2 3 cbr 1000 ------- 0 1.0 3.0 77 77
+ 1.14 1 2 cbr 1000 ------- 0 1.0 3.0 80 80
- 1.14 1 2 cbr 1000 ------- 0 1.0 3.0 80 80
r 1.142 1 2 cbr 1000 ------- 0 1.0 3.0 78 78
+ 1.142 2 3 cbr 1000 ------- 0 1.0 3.0 78 78
- 1.142 2 3 cbr 1000 ------- 0 1.0 3.0 39 39
r 1.146 2 3 cbr 1000 ------- 0 1.0 3.0 37 37
+ 1.148 1 2 cbr 1000 ------- 0 1.0 3.0 81 81
- 1.148 1 2 cbr 1000 ------- 0 1.0 3.0 81 81
r 1.15 1 2 cbr 1000 ------- 0 1.0 3.0 79 79
+ 1.15 2 3 cbr 1000 ------- 0 1.0 3.0 79 79
+ 1.156 1 2 cbr 1000 ------- 0 1.0 3.0 82 82
- 1.156 1 2 cbr 1000 ------- 0 1.0 3.0 82 82
r 1.158 1 2 cbr 1000 ------- 0 1.0 3.0 80 80
+ 1.158 2 3 cbr 1000 ------- 0 1.0 3.0 80 80
- 1.158 2 3 cbr 1000 ------- 0 1.0 3.0 40 40
r 1.162 2 3 cbr 1000 ------- 0 1.0 3.0 38 38
+ 1.164 1 2 cbr 1000 ------- 0 1.0 3.0 83 83
- 1.164 1 2 cbr 1000 ------- 0 1.0 3.0 83 83
r 1.166 1 2 cbr 1000 ------- 0 1.0 3.0 81 81
+ 1.166 2 3 cbr 1000 ------- 0 1.0 3.0 81 81
+ 1.172 1 2 cbr 1000 ------- 0 1.0 3.0 84 84
- 1.172 1 2 cbr 1000 ------- 0 1.0 3.0 84 84
r 1.174 1 2 cbr 1000 ------- 0 1.0 3.0 82 82
+ 1.174 2 3 cbr 1000 ------- 0 1.0 3.0 82 82
- 1.174 2 3 cbr 1000 ------- 0 1.0 3.0 41 41
r 1.178 2 3 cbr 1000 ------- 0 1.0 3.0 39 39
+ 1.18 1 2 cbr 1000 ------- 0 1.0 3.0 85 85
- 1.18 1 2 cbr 1000 ------- 0 1.0 3.0 85 85
r 1.182 1 2 cbr 1000 ------- 0 1.0 3.0 83 83
+ 1.182 2 3 cbr 1000 ------- 0 1.0 3.0 83 83
+ 1.188 1 2 cbr 1000 ------- 0 1.0 3.0 86 86
- 1.188 1 2 cbr 1000 ------- 0 1.0 3.0 86 86
r 1.19 1 2 cbr 1000 ------- 0 1.0 3.0 84 84
+ 1.19 2 3 cbr 1000 ------- 0 1.0 3.0 84 84
- 1.19 2 3 cbr 1000 ------- 0 1.0 3.0 42 42
r 1.194 2 3 cbr 1000 ------- 0 1.0 3.0 40 40
+ 1.196 1 2 cbr 1000 ------- 0 1.0 3.0 87 87
- 1.196 1 2 cbr 1000 ------- 0 1.0 3.0 87 87
r 1.198 1 2 cbr 1000 ------- 0 1.0 3.0 85 85
+ 1.198 2 3 cbr 1000 ------- 0 1.0 3.0 85 85
+ 1.204 1 2 cbr 1000 ------- 0 1.0 3.0 88 88
- 1.204 1 2 cbr 1000 ------- 0 1.0 3.0 88 88
r 1.206 1 2 cbr 1000 ------- 0 1.0 3.0 86 86
+ 1.206 2 3 cbr 1000 ------- 0 1.0 3.0 86 86
- 1.206 2 3 cbr 1000 ------- 0 1.0 3.0 43 43
r 1.21 2 3 cbr 1000 ------- 0 1.0 3.0 41 41
+ 1.212 1 2 cbr 1000 ------- 0 1.0 3.0 89 89
- 1.212 1 2 cbr 1000 ------- 0 1.0 3.0 89 89
r 1.214 1 2 cbr 1000 ------- 0 1.0 3.0 87 87
+ 1.214 2 3 cbr 1000 ------- 0 1.0 3.0 87 87
+ 1.22 1 2 cbr 1000 ------- 0 1.0 3.0 90 90
- 1.22 1 2 cbr 1000 ------- 0 1.0 3.0 90 90
r 1.222 1 2 cbr 1000 ------- 0 1.0 3.0 88 88
+ 1.222 2 3 cbr 1000 ------- 0 1.0 3.0 88 88
- 1.222 2 3 cbr 1000 ------- 0 1.0 3.0 44 44
r 1.226 2 3 cbr 1000 ------- 0 1.0 3.0 42 42
+ 1.228 1 2 cbr 1000 ------- 0 1.0 3.0 91 91
- 1.228 1 2 cbr 1000 ------- 0 1.0 3.0 91 91
r 1.23 1 2 cbr 1000 ------- 0 1.0 3.0 89 89
+ 1.23 2 3 cbr 1000 ------- 0 1.0 3.0 89 89
+ 1.236 1 2 cbr 1000 ------- 0 1.0 3.0 92 92
- 1.236 1 2 cbr 1000 ------- 0 1.0 3.0 92 92
r 1.238 1 2 cbr 1000 ------- 0 1.0 3.0 90 90
+ 1.238 2 3 cbr 1000 ------- 0 1.0 3.0 90 90
- 1.238 2 3 cbr 1000 ------- 0 1.0 3.0 45 45
r 1.242 2 3 cbr 1000 ------- 0 1.0 3.0 43 43
+ 1.244 1 2 cbr 1000 ------- 0 1.0 3.0 93 93
- 1.244 1 2 cbr 1000 ------- 0 1.0 3.0 93 93
r 1.246 1 2 cbr 1000 ------- 0 1.0 3.0 91 91
+ 1.246 2 3 cbr 1000 ------- 0 1.0 3.0 91 91
+ 1.252 1 2 cbr 1000 ------- 0 1.0 3.0 94 94
- 1.252 1 2 cbr 1000 ------- 0 1.0 3.0 94 94
r 1.254 1 2 cbr 1000 ------- 0 1.0 3.0 92 92
+ 1.254 2 3 cbr 1000 ------- 0 1.0 3.0 92 92
- 1.254 2 3 cbr 1000 ------- 0 1.0 3.0 46 46
r 1.258 2 3 cbr 1000 ------- 0 1.0 3.0 44 44
+ 1.26 1 2 cbr 1000 ------- 0 1.0 3.0 95 95
- 1.26 1 2 cbr 1000 ------- 0 1.0 3.0 95 95
r 1.262 1 2 cbr 1000 ------- 0 1.0 3.0 93 93
+ 1.262 2 3 cbr 1000 ------- 0 1.0 3.0 93 93
+ 1.268 1 2 cbr 1000 ------- 0 1.0 3.0 96 96
- 1.268 1 2 cbr 1000 ------- 0 1.0 3.0 96 96
r 1.27 1 2 cbr 1000 ------- 0 1.0 3.0 94 94
+ 1.27 2 3 cbr 1000 ------- 0 1.0 3.0 94 94
- 1.27 2 3 cbr 1000 ------- 0 1.0 3.0 47 47
r 1.274 2 3 cbr 1000 ------- 0 1.0 3.0 45 45
+ 1.276 1 2 cbr 1000 ------- 0 1.0 3.0 97 97
- 1.276 1 2 cbr 1000 ------- 0 1.0 3.0 97 97
r 1.278 1 2 cbr 1000 ------- 0 1.0 3.0 95 95
+ 1.278 2 3 cbr 1000 ------- 0 1.0 3.0 95 95
+ 1.284 1 2 cbr 1000 ------- 0 1.0 3.0 98 98
- 1.284 1 2 cbr 1000 ------- 0 1.0 3.0 98 98
r 1.286 1 2 cbr 1000 ------- 0 1.0 3.0 96 96
+ 1.286 2 3 cbr 1000 ------- 0 1.0 3.0 96 96
- 1.286 2 3 cbr 1000 ------- 0 1.0 3.0 48 48
r 1.29 2 3 cbr 1000 ------- 0 1.0 3.0 46 46
+ 1.292 1 2 cbr 1000 ------- 0 1.0 3.0 99 99
- 1.292 1 2 cbr 1000 ------- 0 1.0 3.0 99 99
r 1.294 1 2 cbr 1000 ------- 0 1.0 3.0 97 97
+ 1.294 2 3 cbr 1000 ------- 0 1.0 3.0 97 97
+ 1.3 1 2 cbr 1000 ------- 0 1.0 3.0 100 100
- 1.3 1 2 cbr 1000 ------- 0 1.0 3.0 100 100
r 1.302 1 2 cbr 1000 ------- 0 1.0 3.0 98 98
+ 1.302 2 3 cbr 1000 ------- 0 1.0 3.0 98 98
- 1.302 2 3 cbr 1000 ------- 0 1.0 3.0 49 49
r 1.306 2 3 cbr 1000 ------- 0 1.0 3.0 47 47
+ 1.308 1 2 cbr 1000 ------- 0 1.0 3.0 101 101
- 1.308 1 2 cbr 1000 ------- 0 1.0 3.0 101 101
r 1.31 1 2 cbr 1000 ------- 0 1.0 3.0 99 99
+ 1.31 2 3 cbr 1000 ------- 0 1.0 3.0 99 99
+ 1.316 1 2 cbr 1000 ------- 0 1.0 3.0 102 102
- 1.316 1 2 cbr 1000 ------- 0 1.0 3.0 102 102
r 1.318 1 2 cbr 1000 ------- 0 1.0 3.0 100 100
+ 1.318 2 3 cbr 1000 ------- 0 1.0 3.0 100 100
- 1.318 2 3 cbr 1000 ------- 0 1.0 3.0 50 50
r 1.322 2 3 cbr 1000 ------- 0 1.0 3.0 48 48
+ 1.324 1 2 cbr 1000 ------- 0 1.0 3.0 103 103
- 1.324 1 2 cbr 1000 ------- 0 1.0 3.0 103 103
r 1.326 1 2 cbr 1000 ------- 0 1.0 3.0 101 101
+ 1.326 2 3 cbr 1000 ------- 0 1.0 3.0 101 101
+ 1.332 1 2 cbr 1000 ------- 0 1.0 3.0 104 104
- 1.332 1 2 cbr 1000 ------- 0 1.0 3.0 104 104
r 1.334 1 2 cbr 1000 ------- 0 1.0 3.0 102 102
+ 1.334 2 3 cbr 1000 ------- 0 1.0 3.0 102 102
- 1.334 2 3 cbr 1000 ------- 0 1.0 3.0 51 51
r 1.338 2 3 cbr 1000 ------- 0 1.0 3.0 49 49
+ 1.34 1 2 cbr 1000 ------- 0 1.0 3.0 105 105
- 1.34 1 2 cbr 1000 ------- 0 1.0 3.0 105 105
r 1.342 1 2 cbr 1000 ------- 0 1.0 3.0 103 103
+ 1.342 2 3 cbr 1000 ------- 0 1.0 3.0 103 103
+ 1.348 1 2 cbr 1000 ------- 0 1.0 3.0 106 106
- 1.348 1 2 cbr 1000 ------- 0 1.0 3.0 106 106
r 1.35 1 2 cbr 1000 ------- 0 1.0 3.0 104 104
+ 1.35 2 3 cbr 1000 ------- 0 1.0 3.0 104 104
- 1.35 2 3 cbr 1000 ------- 0 1.0 3.0 52 52
r 1.354 2 3 cbr 1000 ------- 0 1.0 3.0 50 50
+ 1.356 1 2 cbr 1000 ------- 0 1.0 3.0 107 107
- 1.356 1 2 cbr 1000 ------- 0 1.0 3.0 107 107
r 1.358 1 2 cbr 1000 ------- 0 1.0 3.0 105 105
+ 1.358 2 3 cbr 1000 ------- 0 1.0 3.0 105 105
+ 1.364 1 2 cbr 1000 ------- 0 1.0 3.0 108 108
- 1.364 1 2 cbr 1000 ------- 0 1.0 3.0 108 108
r 1.366 1 2 cbr 1000 ------- 0 1.0 3.0 106 106
+ 1.366 2 3 cbr 1000 ------- 0 1.0 3.0 106 106
- 1.366 2 3 cbr 1000 ------- 0 1.0 3.0 53 53
r 1.37 2 3 cbr 1000 ------- 0 1.0 3.0 51 51
+ 1.372 1 2 cbr 1000 ------- 0 1.0 3.0 109 109
- 1.372 1 2 cbr 1000 ------- 0 1.0 3.0 109 109
r 1.374 1 2 cbr 1000 ------- 0 1.0 3.0 107 107
+ 1.374 2 3 cbr 1000 ------- 0 1.0 3.0 107 107
+ 1.38 1 2 cbr 1000 ------- 0 1.0 3.0 110 110
- 1.38 1 2 cbr 1000 ------- 0 1.0 3.0 110 110
r 1.382 1 2 cbr 1000 ------- 0 1.0 3.0 108 108
+ 1.382 2 3 cbr 1000 ------- 0 1.0 3.0 108 108
- 1.382 2 3 cbr 1000 ------- 0 1.0 3.0 54 54
r 1.386 2 3 cbr 1000 ------- 0 1.0 3.0 52 52
+ 1.388 1 2 cbr 1000 ------- 0 1.0 3.0 111 111
- 1.388 1 2 cbr 1000 ------- 0 1.0 3.0 111 111
r 1.39 1 2 cbr 1000 ------- 0 1.0 3.0 109 109
+ 1.39 2 3 cbr 1000 ------- 0 1.0 3.0 109 109
+ 1.396 1 2 cbr 1000 ------- 0 1.0 3.0 112 112
- 1.396 1 2 cbr 1000 ------- 0 1.0 3.0 112 112
r 1.398 1 2 cbr 1000 ------- 0 1.0 3.0 110 110
+ 1.398 2 3 cbr 1000 ------- 0 1.0 3.0 110 110
- 1.398 2 3 cbr 1000 ------- 0 1.0 3.0 55 55
r 1.402 2 3 cbr 1000 ------- 0 1.0 3.0 53 53
+ 1.404 1 2 cbr 1000 ------- 0 1.0 3.0 113 113
- 1.404 1 2 cbr 1000 ------- 0 1.0 3.0 113 113
r 1.406 1 2 cbr 1000 ------- 0 1.0 3.0 111 111
+ 1.406 2 3 cbr 1000 ------- 0 1.0 3.0 111 111
+ 1.412 1 2 cbr 1000 ------- 0 1.0 3.0 114 114
- 1.412 1 2 cbr 1000 ------- 0 1.0 3.0 114 114
r 1.414 1 2 cbr 1000 ------- 0 1.0 3.0 112 112
+ 1.414 2 3 cbr 1000 ------- 0 1.0 3.0 112 112
- 1.414 2 3 cbr 1000 ------- 0 1.0 3.0 56 56
r 1.418 2 3 cbr 1000 ------- 0 1.0 3.0 54 54
+ 1.42 1 2 cbr 1000 ------- 0 1.0 3.0 115 115
- 1.42 1 2 cbr 1000 ------- 0 1.0 3.0 115 115
r 1.422 1 2 cbr 1000 ------- 0 1.0 3.0 113 113
+ 1.422 2 3 cbr 1000 ------- 0 1.0 3.0 113 113
+ 1.428 1 2 cbr 1000 ------- 0 1.0 3.0 116 116
- 1.428 1 2 cbr 1000 ------- 0 1.0 3.0 116 116
r 1.43 1 2 cbr 1000 ------- 0 1.0 3.0 114 114
+ 1.43 2 3 cbr 1000 ------- 0 1.0 3.0 114 114
- 1.43 2 3 cbr 1000 ------- 0 1.0 3.0 57 57
r 1.434 2 3 cbr 1000 ------- 0 1.0 3.0 55 55
+ 1.436 1 2 cbr 1000 ------- 0 1.0 3.0 117 117
- 1.436 1 2 cbr 1000 ------- 0 1.0 3.0 117 117
r 1.438 1 2 cbr 1000 ------- 0 1.0 3.0 115 115
+ 1.438 2 3 cbr 1000 ------- 0 1.0 3.0 115 115
+ 1.444 1 2 cbr 1000 ------- 0 1.0 3.0 118 118
- 1.444 1 2 cbr 1000 ------- 0 1.0 3.0 118 118
r 1.446 1 2 cbr 1000 ------- 0 1.0 3.0 116 116
+ 1.446 2 3 cbr 1000 ------- 0 1.0 3.0 116 116
- 1.446 2 3 cbr 1000 ------- 0 1.0 3.0 58 58
r 1.45 2 3 cbr 1000 ------- 0 1.0 3.0 56 56
+ 1.452 1 2 cbr 1000 ------- 0 1.0 3.0 119 119
- 1.452 1 2 cbr 1000 ------- 0 1.0 3.0 119 119
r 1.454 1 2 cbr 1000 ------- 0 1.0 3.0 117 117
+ 1.454 2 3 cbr 1000 ------- 0 1.0 3.0 117 117
+ 1.46 1 2 cbr 1000 ------- 0 1.0 3.0 120 120
- 1.46 1 2 cbr 1000 ------- 0 1.0 3.0 120 120
r 1.462 1 2 cbr 1000 ------- 0 1.0 3.0 118 118
+ 1.462 2 3 cbr 1000 ------- 0 1.0 3.0 118 118
- 1.462 2 3 cbr 1000 ------- 0 1.0 3.0 59 59
r 1.466 2 3 cbr 1000 ------- 0 1.0 3.0 57 57
+ 1.468 1 2 cbr 1000 ------- 0 1.0 3.0 121 121
- 1.468 1 2 cbr 1000 ------- 0 1.0 3.0 121 121
r 1.47 1 2 cbr 1000 ------- 0 1.0 3.0 119 119
+ 1.47 2 3 cbr 1000 ------- 0 1.0 3.0 119 119
+ 1.476 1 2 cbr 1000 ------- 0 1.0 3.0 122 122
- 1.476 1 2 cbr 1000 ------- 0 1.0 3.0 122 122
r 1.478 1 2 cbr 1000 ------- 0 1.0 3.0 120 120
+ 1.478 2 3 cbr 1000 ------- 0 1.0 3.0 120 120
- 1.478 2 3 cbr 1000 ------- 0 1.0 3.0 60 60
r 1.482 2 3 cbr 1000 ------- 0 1.0 3.0 58 58
+ 1.484 1 2 cbr 1000 ------- 0 1.0 3.0 123 123
- 1.484 1 2 cbr 1000 ------- 0 1.0 3.0 123 123
r 1.486 1 2 cbr 1000 ------- 0 1.0 3.0 121 121
+ 1.486 2 3 cbr 1000 ------- 0 1.0 3.0 121 121
+ 1.492 1 2 cbr 1000 ------- 0 1.0 3.0 124 124
- 1.492 1 2 cbr 1000 ------- 0 1.0 3.0 124 124
r 1.494 1 2 cbr 1000 ------- 0 1.0 3.0 122 122
+ 1.494 2 3 cbr 1000 ------- 0 1.0 3.0 122 122
- 1.494 2 3 cbr 1000 ------- 0 1.0 3.0 61 61
r 1.498 2 3 cbr 1000 ------- 0 1.0 3.0 59 59
+ 1.5 1 2 cbr 1000 ------- 0 1.0 3.0 125 125
- 1.5 1 2 cbr 1000 ------- 0 1.0 3.0 125 125
r 1.502 1 2 cbr 1000 ------- 0 1.0 3.0 123 123
+ 1.502 2 3 cbr 1000 ------- 0 1.0 3.0 123 123
+ 1.508 1 2 cbr 1000 ------- 0 1.0 3.0 126 126
- 1.508 1 2 cbr 1000 ------- 0 1.0 3.0 126 126
r 1.51 1 2 cbr 1000 ------- 0 1.0 3.0 124 124
+ 1.51 2 3 cbr 1000 ------- 0 1.0 3.0 124 124
- 1.51 2 3 cbr 1000 ------- 0 1.0 3.0 62 62
r 1.514 2 3 cbr 1000 ------- 0 1.0 3.0 60 60
+ 1.516 1 2 cbr 1000 ------- 0 1.0 3.0 127 127
- 1.516 1 2 cbr 1000 ------- 0 1.0 3.0 127 127
r 1.518 1 2 cbr 1000 ------- 0 1.0 3.0 125 125
+ 1.518 2 3 cbr 1000 ------- 0 1.0 3.0 125 125
+ 1.524 1 2 cbr 1000 ------- 0 1.0 3.0 128 128
- 1.524 1 2 cbr 1000 ------- 0 1.0 3.0 128 128
r 1.526 1 2 cbr 1000 ------- 0 1.0 3.0 126 126
+ 1.526 2 3 cbr 1000 ------- 0 1.0 3.0 126 126
- 1.526 2 3 cbr 1000 ------- 0 1.0 3.0 63 63
r 1.53 2 3 cbr 1000 ------- 0 1.0 3.0 61 61
+ 1.532 1 2 cbr 1000 ------- 0 1.0 3.0 129 129
- 1.532 1 2 cbr 1000 ------- 0 1.0 3.0 129 129
r 1.534 1 2 cbr 1000 ------- 0 1.0 3.0 127 127
+ 1.534 2 3 cbr 1000 ------- 0 1.0 3.0 127 127
+ 1.54 1 2 cbr 1000 ------- 0 1.0 3.0 130 130
- 1.54 1 2 cbr 1000 ------- 0 1.0 3.0 130 130
r 1.542 1 2 cbr 1000 ------- 0 1.0 3.0 128 128
+ 1.542 2 3 cbr 1000 ------- 0 1.0 3.0 128 128
- 1.542 2 3 cbr 1000 ------- 0 1.0 3.0 64 64
r 1.546 2 3 cbr 1000 ------- 0 1.0 3.0 62 62
+ 1.548 1 2 cbr 1000 ------- 0 1.0 3.0 131 131
- 1.548 1 2 cbr 1000 ------- 0 1.0 3.0 131 131
r 1.55 1 2 cbr 1000 ------- 0 1.0 3.0 129 129
+ 1.55 2 3 cbr 1000 ------- 0 1.0 3.0 129 129
+ 1.556 1 2 cbr 1000 ------- 0 1.0 3.0 132 132
- 1.556 1 2 cbr 1000 ------- 0 1.0 3.0 132 132
r 1.558 1 2 cbr 1000 ------- 0 1.0 3.0 130 130
+ 1.558 2 3 cbr 1000 ------- 0 1.0 3.0 130 130
- 1.558 2 3 cbr 1000 ------- 0 1.0 3.0 65 65
r 1.562 2 3 cbr 1000 ------- 0 1.0 3.0 63 63
+ 1.564 1 2 cbr 1000 ------- 0 1.0 3.0 133 133
- 1.564 1 2 cbr 1000 ------- 0 1.0 3.0 133 133
r 1.566 1 2 cbr 1000 ------- 0 1.0 3.0 131 131
+ 1.566 2 3 cbr 1000 ------- 0 1.0 3.0 131 131
+ 1.572 1 2 cbr 1000 ------- 0 1.0 3.0 134 134
- 1.572 1 2 cbr 1000 ------- 0 1.0 3.0 134 134
r 1.574 1 2 cbr 1000 ------- 0 1.0 3.0 132 132
+ 1.574 2 3 cbr 1000 ------- 0 1.0 3.0 132 132